  <PP_INFO>

############################################################
#    Opium Parameter File                                  #
############################################################
#-----------------------------------------------------------
#Command line   : opium Na Na.log all rpt plot vi upf 
 
#Opium version  : 3.9 
#Compile Host   : redfish 
#Compile OS     : Linux 4.16.10-1-ARCH unknown 
#Compile Date   : Thu May 31 13:33:45 EDT 2018 
#-----------------------------------------------------------
#Execution Host : redfish 
#Execution Date : Tue May  7 20:46:45 2019
 
#-----------------------------------------------------------
############################################################
[Atom]
Na                 # chemical symbol (max. 2 characters)
4              # norb: number of orbitals
100 2.00  -13.0   # reference configuration
200 2.00   -1.4   # reference configuration
210 6.00   -0.4   # reference configuration
300 0.00   -0.1   # reference configuration


[Pseudo]
3  1.42 1.72 1.74
opt

[Relativity]
srl

[XC]
gga

[Optinfo]
7.07  10    # rc[a.u.]  Qc[sqrt(Ry)]  Nb
7.07  10    # rc[a.u.]  Qc[sqrt(Ry)]  Nb
7.07  10    # rc[a.u.]  Qc[sqrt(Ry)]  Nb

[Configs]
3                  # number of valence configurations
#
200 2.00   -1.4   # test configuration
210 6.00   -0.4   # test configuration
300 1.00   -0.4   # test configuration    
#
200 2.00   -1.4   # test configuration
210 6.00   -0.4   # test configuration
300 0.50   -0.4   # test configuration    
#
200 2.00   -1.4   # test configuration
210 6.00   -0.4   # test configuration
300 0.30   -0.4   # test configuration    


[KBdesign]
s                 # local orbital 
1                 # number of aug. operators
au 0.03 0.9  12.92  # unit(gp or au)  left  right  height(Ry)
############################################################
  </PP_INFO>



<PP_HEADER>
   0         Version Number
   Na        Element
   NC        Norm - Conserving pseudopotential
    F      Nonlinear Core Correction
SLA  PW   PBE  PBE     PBE  Exchange-Correlation functional
 9          Z valence
 0          Total energy
 0.000000   0.000000     Suggested cutoff for wfc and rho
 1           Max angular momentum component
 1138           Number of points in mesh
 2  2     Number of Wavefuncitons, Number of Projectors
 Wavefunctions         nl  l   occ
                       S  0  2.000000
                       P  1  6.000000
</PP_HEADER>
<PP_MESH>
  <PP_R>
 4.4964431302260906e-05  4.5552784921760238e-05  4.6148837070331384e-05  4.6752688482206110e-05 
 4.7364441209710242e-05  4.7984198640510819e-05  4.8612065515088642e-05  4.9248147944439922e-05 
 4.9892553428009166e-05  5.0545390871856859e-05  5.1206770607064804e-05  5.1876804408382416e-05 
 5.2555605513116861e-05  5.3243288640270442e-05  5.3939970009928459e-05  5.4645767362900452e-05 
 5.5360799980618985e-05  5.6085188705298311e-05  5.6819055960356994e-05  5.7562525771107833e-05 
 5.8315723785718371e-05  5.9078777296445754e-05  5.9851815261149449e-05  6.0634968325085435e-05 
 6.1428368842985406e-05  6.2232150901425304e-05  6.3046450341486073e-05  6.3871404781711200e-05 
 6.4707153641364566e-05  6.5553838163992612e-05  6.6411601441294837e-05  6.7280588437306686e-05 
 6.8160946012898807e-05  6.9052822950596695e-05  6.9956369979725627e-05  7.0871739801884066e-05 
 7.1799087116750630e-05  7.2738568648228678e-05  7.3690343170933125e-05  7.4654571537023594e-05 
 7.5631416703388912e-05  7.6621043759187284e-05  7.7623619953746365e-05  7.8639314724829359e-05 
 7.9668299727270046e-05  8.0710748861982873e-05  8.1766838305352791e-05  8.2836746539009286e-05 
 8.3920654379990336e-05  8.5018745011300974e-05  8.6131204012871273e-05  8.7258219392920345e-05 
 8.8399981619729815e-05  8.9556683653833544e-05  9.0728520980628337e-05  9.1915691643411519e-05 
 9.3118396276850674e-05  9.4336838140891393e-05  9.5571223155108741e-05  9.6821759933508116e-05 
 9.8088659819781359e-05  9.9372136923024619e-05  1.0067240815392319e-04  1.0198969326140984e-04 
 1.0332421486980298e-04  1.0467619851643076e-04  1.0604587268974731e-04  1.0743346886794795e-04 
 1.0883922155808922e-04  1.1026336833572170e-04  1.1170614988504039e-04  1.1316781003956109e-04 
 1.1464859582332880e-04  1.1614875749266542e-04  1.1766854857846358e-04  1.1920822592903403e-04 
 1.2076804975351359e-04  1.2234828366584113e-04  1.2394919472930905e-04  1.2557105350169721e-04 
 1.2721413408099843e-04  1.2887871415174124e-04  1.3056507503191953e-04  1.3227350172053569e-04 
 1.3400428294576639e-04  1.3575771121375818e-04  1.3753408285806148e-04  1.3933369808971221e-04 
 1.4115686104796776e-04  1.4300387985170741e-04  1.4487506665150507e-04  1.4677073768238353e-04 
 1.4869121331725885e-04  1.5063681812108425e-04  1.5260788090570233e-04  1.5460473478541497e-04 
 1.5662771723328072e-04  1.5867717013814790e-04  1.6075343986243540e-04  1.6285687730066841e-04 
 1.6498783793878036e-04  1.6714668191419098e-04  1.6933377407667036e-04  1.7154948404999961e-04 
 1.7379418629443754e-04  1.7606826017000618e-04  1.7837209000060307e-04  1.8070606513895289e-04 
 1.8307058003240911e-04  1.8546603428961649e-04  1.8789283274804594e-04  1.9035138554241289e-04 
 1.9284210817399123e-04  1.9536542158083388e-04  1.9792175220891244e-04  2.0051153208418705e-04 
 2.0313519888562074e-04  2.0579319601914749e-04  2.0848597269260922e-04  2.1121398399167281e-04 
 2.1397769095674068e-04  2.1677756066086802e-04  2.1961406628869844e-04  2.2248768721643439e-04 
 2.2539890909285213e-04  2.2834822392137774e-04  2.3133613014323694e-04  2.3436313272169270e-04 
 2.3742974322738539e-04  2.4053647992478927e-04  2.4368386785980051e-04  2.4687243894847124e-04 
 2.5010273206690475e-04  2.5337529314232608e-04  2.5669067524534614e-04  2.6004943868343131e-04 
 2.6345215109559682e-04  2.6689938754833909e-04  2.7039173063282337e-04  2.7392977056334334e-04 
 2.7751410527706763e-04  2.8114534053509411e-04  2.8482409002482417e-04  2.8855097546367733e-04 
 2.9232662670416304e-04  2.9615168184032745e-04  3.0002678731559250e-04  3.0395259803200664e-04 
 3.0792977746092482e-04  3.1195899775513658e-04  3.1604093986246175e-04  3.2017629364083146e-04 
 3.2436575797487700e-04  3.2861004089404223e-04  3.3290985969224219e-04  3.3726594104908811e-04 
 3.4167902115269663e-04  3.4614984582410907e-04  3.5067917064333590e-04  3.5526776107705179e-04 
 3.5991639260796133e-04  3.6462585086585747e-04  3.6939693176039472e-04  3.7423044161559991e-04 
 3.7912719730614277e-04  3.8408802639538987e-04  3.8911376727526433e-04  3.9420526930793680e-04 
 3.9936339296936898e-04  4.0458900999473682e-04  4.0988300352575444e-04  4.1524626825992906e-04 
 4.2067971060176594e-04  4.2618424881595333e-04  4.3176081318254989e-04  4.3741034615420686e-04 
 4.4313380251544284e-04  4.4893214954400525e-04  4.5480636717434245e-04  4.6075744816321537e-04 
 4.6678639825747508e-04  4.7289423636403725e-04  4.7908199472207881e-04  4.8535071907748994e-04 
 4.9170146885960683e-04  4.9813531736025811e-04  5.0465335191515347e-04  5.1125667408764678e-04 
 5.1794639985490074e-04  5.2472365979649277e-04  5.3158959928548350e-04  5.3854537868198852e-04 
 5.4559217352928048e-04  5.5273117475246108e-04  5.5996358885972836e-04  5.6729063814628053e-04 
 5.7471356090088620e-04  5.8223361161515775e-04  5.8985206119556476e-04  5.9757019717821870e-04 
 6.0538932394647057e-04  6.1331076295135459e-04  6.2133585293491637e-04  6.2946595015646355e-04 
 6.3770242862177715e-04  6.4604668031532171e-04  6.5450011543549268e-04  6.6306416263294584e-04 
 6.7174026925204079e-04  6.8052990157544671e-04  6.8943454507194542e-04  6.9845570464748203e-04 
 7.0759490489949635e-04  7.1685369037458307e-04  7.2623362582952401e-04  7.3573629649573656e-04 
 7.4536330834718044e-04  7.5511628837177168e-04  7.6499688484634766e-04  7.7500676761522926e-04 
 7.8514762837242878e-04  7.9542118094755071e-04  8.0582916159543212e-04  8.1637332928957522e-04 
 8.2705546601941516e-04  8.3787737709148412e-04  8.4884089143451096e-04  8.5994786190851441e-04 
 8.7120016561793867e-04  8.8259970422889316e-04  8.9414840429053485e-04  9.0584821756066155e-04 
 9.1770112133556208e-04  9.2970911878418607e-04  9.4187423928668204e-04  9.5419853877736936e-04 
 9.6668410009219483e-04  9.7933303332073765e-04  9.9214747616281889e-04  1.0051295942897789e-03 
 1.0182815817104793e-03  1.0316056611420982e-03  1.0451040843857708e-03  1.0587791327071534e-03 
 1.0726331172219601e-03  1.0866683792865488e-03  1.1008872908936122e-03  1.1152922550730544e-03 
 1.1298857062981076e-03  1.1446701108967627e-03  1.1596479674685846e-03  1.1748218073069834e-03 
 1.1901941948270064e-03  1.2057677279987324e-03  1.2215450387863343e-03  1.2375287935928862e-03 
 1.2537216937109936e-03  1.2701264757793171e-03  1.2867459122450713e-03  1.3035828118325757e-03 
 1.3206400200179319e-03  1.3379204195099221e-03  1.3554269307371894e-03  1.3731625123417999e-03 
 1.3911301616792544e-03  1.4093329153250572e-03  1.4277738495878987e-03  1.4464560810295603e-03 
 1.4653827669916214e-03  1.4845571061290566e-03  1.5039823389508176e-03  1.5236617483674842e-03 
 1.5435986602460874e-03  1.5637964439721866e-03  1.5842585130193038e-03  1.6049883255258096e-03 
 1.6259893848793569e-03  1.6472652403089622e-03  1.6688194874848290e-03  1.6906557691260327e-03 
 1.7127777756161427e-03  1.7351892456269093e-03  1.7578939667501044e-03  1.7808957761376381e-03 
 1.8041985611500437e-03  1.8278062600134502e-03  1.8517228624851557e-03  1.8759524105279000e-03 
 1.9004989989929715e-03  1.9253667763122447e-03  1.9505599451992742e-03  1.9760827633595632e-03 
 2.0019395442101278e-03  2.0281346576084742e-03  2.0546725305911127e-03  2.0815576481217415e-03 
 2.1087945538492106e-03  2.1363878508754153e-03  2.1643422025332277e-03  2.1926623331746126e-03 
 2.2213530289690521e-03  2.2504191387124222e-03  2.2798655746464501e-03  2.3096973132888938e-03 
 2.3399193962745871e-03  2.3705369312074847e-03  2.4015550925238637e-03  2.4329791223668125e-03 
 2.4648143314721666e-03  2.4970661000660362e-03  2.5297398787740783e-03  2.5628411895426565e-03 
 2.5963756265720774e-03  2.6303488572620142e-03  2.6647666231693133e-03  2.6996347409783297e-03 
 2.7349591034839635e-03  2.7707456805875536e-03  2.8070005203058059e-03  2.8437297497929249e-03 
 2.8809395763761082e-03  2.9186362886046142e-03  2.9568262573125307e-03  2.9955159366954658e-03 
 3.0347118654013207e-03  3.0744206676353355e-03  3.1146490542795992e-03  3.1554038240272021e-03 
 3.1966918645312354e-03  3.2385201535688078e-03  3.2808957602203236e-03  3.3238258460641669e-03 
 3.3673176663870218e-03  3.4113785714100374e-03  3.4560160075310323e-03  3.5012375185829530e-03 
 3.5470507471087975e-03  3.5934634356532312e-03  3.6404834280710781e-03  3.6881186708529706e-03 
 3.7363772144683172e-03  3.7852672147258475e-03  3.8347969341519694e-03  3.8849747433871503e-03 
 3.9358091226005800e-03  3.9873086629233345e-03  4.0394820679003074e-03  4.0923381549611108e-03 
 4.1458858569102617e-03  4.2001342234368405e-03  4.2550924226439071e-03  4.3107697425979309e-03 
 4.3671755928985029e-03  4.4243195062685751e-03  4.4822111401655162e-03  4.5408602784132437e-03 
 4.6002768328557075e-03  4.6604708450320269e-03  4.7214524878735281e-03  4.7832320674229935e-03 
 4.8458200245764084e-03  4.9092269368474972e-03  4.9734635201553485e-03  5.0385406306354304e-03 
 5.1044692664743083e-03  5.1712605697683467e-03  5.2389258284067756e-03  5.3074764779793560e-03 
 5.3769241037090222e-03  5.4472804424098150e-03  5.5185573844704298e-03  5.5907669758637202e-03 
 5.6639214201824979e-03  5.7380330807019729e-03  5.8131144824691535e-03  5.8891783144196484e-03 
 5.9662374315220925e-03  6.0443048569506878e-03  6.1233937842861373e-03  6.2035175797453997e-03 
 6.2846897844406118e-03  6.3669241166675640e-03  6.4502344742241348e-03  6.5346349367590255e-03 
 6.6201397681512923e-03  6.7067634189209493e-03  6.7945205286711477e-03  6.8834259285623098e-03 
 6.9734946438186193e-03  7.0647418962673236e-03  7.1571831069112682e-03  7.2508338985350744e-03 
 7.3457100983454126e-03  7.4418277406458726e-03  7.5392030695467715e-03  7.6378525417104557e-03 
 7.7377928291325190e-03  7.8390408219593984e-03  7.9416136313428653e-03  8.0455285923318395e-03 
 8.1508032668020595e-03  8.2574554464240630e-03  8.3655031556700548e-03  8.4749646548600618e-03 
 8.5858584432479748e-03  8.6982032621479716e-03  8.8120180981018370e-03  8.9273221860877369e-03 
 9.0441350127709753e-03  9.1624763197972955e-03  9.2823661071292345e-03  9.4038246364262085e-03 
 9.5268724344687496e-03  9.6515302966275942e-03  9.7778192903781452e-03  9.9057607588609251e-03 
 1.0035376324488622e-02  1.0166687892600324e-02  1.0299717655163585e-02  1.0434488094524885e-02 
 1.0571021987209248e-02  1.0709342407769508e-02  1.0849472732685951e-02  1.0991436644317010e-02 
 1.1135258134901642e-02  1.1280961510614066e-02  1.1428571395671562e-02  1.1578112736496043e-02 
 1.1729610805930008e-02  1.1883091207507785e-02  1.2038579879782539e-02  1.2196103100709959e-02 
 1.2355687492089306e-02  1.2517360024062545e-02  1.2681148019672380e-02  1.2847079159479897e-02 
 1.3015181486242672e-02  1.3185483409654001e-02  1.3358013711144284e-02  1.3532801548745118e-02 
 1.3709876462017068e-02  1.3889268377041929e-02  1.4071007611480313e-02  1.4255124879695397e-02 
 1.4441651297943725e-02  1.4630618389633946e-02  1.4822058090654289e-02  1.5016002754769886e-02 
 1.5212485159090577e-02  1.5411538509610341e-02  1.5613196446819182e-02  1.5817493051388451e-02 
 1.6024462849930574e-02  1.6234140820834100e-02  1.6446562400175193e-02  1.6661763487706309e-02 
 1.6879780452923456e-02  1.7100650141212655e-02  1.7324409880076923e-02  1.7551097485444696e-02 
 1.7780751268060817e-02  1.8013410039961150e-02  1.8249113121031894e-02  1.8487900345654763e-02 
 1.8729812069439026e-02  1.8974889176041784e-02  1.9223173084077370e-02  1.9474705754117170e-02 
 1.9729529695781105e-02  1.9987687974921814e-02  2.0249224220902917e-02  2.0514182633972464e-02 
 2.0782607992732911e-02  2.1054545661708727e-02  2.1330041599013232e-02  2.1609142364115527e-02 
 2.1891895125709212e-02  2.2178347669683966e-02  2.2468548407201513e-02  2.2762546382877193e-02 
 2.3060391283068641e-02  2.3362133444272914e-02  2.3667823861633384e-02  2.3977514197558180e-02 
 2.4291256790451167e-02  2.4609104663557282e-02  2.4931111533923588e-02  2.5257331821477581e-02 
 2.5587820658224302e-02  2.5922633897563749e-02  2.6261828123730287e-02  2.6605460661355398e-02 
 2.6953589585155847e-02  2.7306273729748344e-02  2.7663572699592742e-02  2.8025546879065347e-02 
 2.8392257442664028e-02  2.8763766365346836e-02  2.9140136433005937e-02  2.9521431253078587e-02 
 2.9907715265296841e-02  3.0299053752578187e-02  3.0695512852058401e-02  3.1097159566268896e-02 
 3.1504061774460343e-02  3.1916288244074387e-02  3.2333908642365530e-02  3.2756993548175066e-02 
 3.3185614463859092e-02  3.3619843827372445e-02  3.4059755024511112e-02  3.4505422401314427e-02 
 3.4956921276629811e-02  3.5414327954841798e-02  3.5877719738767681e-02  3.6347174942721862e-02 
 3.6822772905751151e-02  3.7304594005043316e-02  3.7792719669510831e-02  3.8287232393552827e-02 
 3.8788215750996655e-02  3.9295754409222096e-02  3.9809934143470400e-02  4.0330841851340442e-02 
 4.0858565567474671e-02  4.1393194478437138e-02  4.1934818937786306e-02  4.2483530481344851e-02 
 4.3039421842669651e-02  4.3602586968723850e-02  4.4173121035754145e-02  4.4751120465375778e-02 
 4.5336682940868060e-02  4.5929907423683032e-02  4.6530894170170228e-02  4.7139744748520271e-02 
 4.7756562055929909e-02  4.8381450335992240e-02  4.9014515196313897e-02  4.9655863626363005e-02 
 5.0305604015550731e-02  5.0963846171549296e-02  5.1630701338849727e-02  5.2306282217562484e-02 
 5.2990702982464083e-02  5.3684079302292666e-02  5.4386528359296631e-02  5.5098168869038518e-02 
 5.5819121100458252e-02  5.6549506896198865e-02  5.7289449693198241e-02  5.8039074543550194e-02 
 5.8798508135638611e-02  5.9567878815548148e-02  6.0347316608754781e-02  6.1136953242100736e-02 
 6.1936922166056479e-02  6.2747358577274148e-02  6.3568399441436149e-02  6.4400183516402698e-02 
 6.5242851375662200e-02  6.6096545432088469e-02  6.6961409962009000e-02  6.7837591129587677e-02 
 6.8725237011527301e-02  6.9624497622094564e-02  7.0535524938473024e-02  7.1458472926447456e-02 
 7.2393497566424519e-02  7.3340756879793842e-02  7.4300410955633944e-02  7.5272621977767795e-02 
 7.6257554252171927e-02  7.7255374234745045e-02  7.8266250559439088e-02  7.9290354066758939e-02 
 8.0327857832634769e-02  8.1378937197672405e-02  8.2443769796786165e-02  8.3522535589219751e-02 
 8.4615416888959696e-02  8.5722598395546676e-02  8.6844267225290581e-02  8.7980612942893333e-02 
 8.9131827593485799e-02  9.0298105735083914e-02  9.1479644471469515e-02  9.2676643485501170e-02 
 9.3889305072861265e-02  9.5117834176244406e-02  9.6362438419992855e-02  9.7623328145186233e-02 
 9.8900716445189107e-02  1.0019481920166450e-01  1.0150585512105832e-01  1.0283404577156136e-01 
 1.0417961562055478e-01  1.0554279207254563e-01  1.0692380550759890e-01  1.0832288932027186e-01 
 1.0974027995905887e-01  1.1117621696635148e-01  1.1263094301892154e-01  1.1410470396893434e-01 
 1.1559774888549813e-01  1.1711033009675739e-01  1.1864270323253691e-01  1.2019512726754394e-01 
 1.2176786456513514e-01  1.2336118092165713e-01  1.2497534561136642e-01  1.2661063143193743e-01 
 1.2826731475056599e-01  1.2994567555067604e-01  1.3164599747923741e-01  1.3336856789470300e-01 
 1.3511367791557288e-01  1.3688162246959412e-01  1.3867270034360421e-01  1.4048721423402682e-01 
 1.4232547079802840e-01  1.4418778070534297e-01  1.4607445869077762e-01  1.4798582360740234e-01 
 1.4992219848043731e-01  1.5188391056184480e-01  1.5387129138563566e-01  1.5588467682389923e-01 
 1.5792440714356662e-01  1.5999082706391668e-01  1.6208428581483417e-01  1.6420513719583066e-01 
 1.6635373963583738e-01  1.6853045625378049e-01  1.7073565491994933e-01  1.7296970831816699e-01 
 1.7523299400877509e-01  1.7752589449244210e-01  1.7984879727480749e-01  1.8220209493196957e-01 
 1.8458618517683370e-01  1.8700147092632571e-01  1.8944836036948587e-01  1.9192726703645391e-01 
 1.9443860986835657e-01  1.9698281328810968e-01  1.9956030727214663e-01  2.0217152742308542e-01 
 2.0481691504334645e-01  2.0749691720973393e-01  2.1021198684899256e-01  2.1296258281435360e-01 
 2.1574916996308174e-01  2.1857221923503758e-01  2.2143220773226713e-01  2.2432961879963356e-01 
 2.2726494210650366e-01  2.3023867372950199e-01  2.3325131623635087e-01  2.3630337877080440e-01 
 2.3939537713869508e-01  2.4252783389510635e-01  2.4570127843268563e-01  2.4891624707111284e-01 
 2.5217328314773985e-01  2.5547293710941560e-01  2.5881576660551314e-01  2.6220233658217357e-01 
 2.6563321937778328e-01  2.6910899481970063e-01  2.7263025032224797e-01  2.7619758098598618e-01 
 2.7981158969828790e-01  2.8347288723522729e-01  2.8718209236480285e-01  2.9093983195150874e-01 
 2.9474674106227938e-01  2.9860346307381530e-01  3.0251064978131575e-01  3.0646896150863395e-01 
 3.1047906721987284e-01  3.1454164463244216e-01  3.1865738033159385e-01  3.2282696988645698e-01 
 3.2705111796759034e-01  3.3133053846607352e-01  3.3566595461415621e-01  3.4005809910748613e-01 
 3.4450771422893639e-01  3.4901555197405304e-01  3.5358237417814409e-01  3.5820895264503144e-01 
 3.6289606927748846e-01  3.6764451620938043e-01  3.7245509593954135e-01  3.7732862146739521e-01 
 3.8226591643035573e-01  3.8726781524302273e-01  3.9233516323820078e-01  3.9746881680976165e-01 
 4.0266964355737761e-01  4.0793852243314749e-01  4.1327634389014173e-01  4.1868401003289102e-01 
 4.2416243476984439e-01  4.2971254396782149e-01  4.3533527560848656e-01  4.4103157994686948e-01 
 4.4680241967196133e-01  4.5264877006941068e-01  4.5857161918635042e-01  4.6457196799837669e-01 
 4.7065083057872087e-01  4.7680923426962746e-01  4.8304821985597768e-01  4.8936884174118500e-01 
 4.9577216812539182e-01  5.0225928118599750e-01  5.0883127726054933e-01  5.1548926703202591e-01 
 5.2223437571654507e-01  5.2906774325352879e-01  5.3599052449835471e-01  5.4300388941753019e-01 
 5.5010902328641897e-01  5.5730712688955586e-01  5.6459941672358205e-01  5.7198712520283557e-01 
 5.7947150086763421e-01  5.8705380859527667e-01  5.9473532981381672e-01  6.0251736271862277e-01 
 6.1040122249177786e-01  6.1838824152434801e-01  6.2647976964155971e-01  6.3467717433092330e-01 
 6.4298184097334188e-01  6.5139517307724393e-01  6.5991859251577945e-01  6.6855353976712029e-01 
 6.7730147415790387e-01  6.8616387410986324e-01  6.9514223738968350e-01  7.0423808136212840e-01 
 7.1345294324647834e-01  7.2278838037632387e-01  7.3224597046276052e-01  7.4182731186102047e-01 
 7.5153402384060553e-01  7.6136774685894337e-01  7.7133014283862944e-01  7.8142289544829557e-01 
 7.9164771038715431e-01  8.0200631567326686e-01  8.1250046193558068e-01  8.2313192270979130e-01 
 8.3390249473807354e-01  8.4481399827273507e-01  8.5586827738384375e-01  8.6706720027087958e-01 
 8.7841265957846515e-01  8.8990657271622642e-01  9.0155088218284052e-01  9.1334755589432182e-01 
 9.2529858751660643e-01  9.3740599680247993e-01  9.4967182993292998e-01  9.6209815986294955e-01 
 9.7468708667187265e-01  9.8744073791829268e-01  1.0003612689996257e+00  1.0134508635163759e+00 
 1.0267117336411717e+00  1.0401461204926259e+00  1.0537562945140921e+00  1.0675445558573728e+00 
 1.0815132347714529e+00  1.0956646919963153e+00  1.1100013191619131e+00  1.1245255391923599e+00 
 1.1392398067154097e+00  1.1541466084772951e+00  1.1692484637629963e+00  1.1845479248219954e+00 
 1.2000475772996284e+00  1.2157500406740542e+00  1.2316579686989568e+00  1.2477740498520344e+00 
 1.2641010077893602e+00  1.2806416018056848e+00  1.2973986273007656e+00  1.3143749162517944e+00 
 1.3315733376920094e+00  1.3489967981955675e+00  1.3666482423687636e+00  1.3845306533476751e+00 
 1.4026470533023192e+00  1.4210005039474070e+00  1.4395941070597809e+00  1.4584310050026206e+00 
 1.4775143812565157e+00  1.4968474609574676e+00  1.5164335114419629e+00  1.5362758427991503e+00 
 1.5563778084302562e+00  1.5767428056153165e+00  1.5973742760873260e+00  1.6182757066138997e+00 
 1.6394506295865439e+00  1.6609026236176392e+00  1.6826353141452350e+00  1.7046523740457560e+00 
 1.7269575242547284e+00  1.7495545343956258e+00  1.7724472234169448e+00  1.7956394602376173e+00 
 1.8191351644008658e+00  1.8429383067366158e+00  1.8670529100325788e+00  1.8914830497141004e+00 
 1.9162328545329366e+00  1.9413065072650084e+00  1.9667082454173050e+00  1.9924423619440335e+00 
 2.0185132059721358e+00  2.0449251835363040e+00  2.0716827583236097e+00  2.0987904524278775e+00 
 2.1262528471139301e+00  2.1540745835918322e+00  2.1822603638012672e+00  2.2108149512061757e+00 
 2.2397431715997911e+00  2.2690499139202127e+00  2.2987401310766447e+00  2.3288188407864525e+00 
 2.3592911264231717e+00  2.3901621378755933e+00  2.4214370924181332e+00  2.4531212755925460e+00 
 2.4852200421012003e+00  2.5177388167120331e+00  2.5506830951753532e+00  2.5840584451526301e+00 
 2.6178705071574466e+00  2.6521249955087574e+00  2.6868276992966238e+00  2.7219844833605809e+00 
 2.7576012892808128e+00  2.7936841363822906e+00  2.8302391227520558e+00  2.8672724262698086e+00 
 2.9047903056519870e+00  2.9427991015095021e+00  2.9813052374193250e+00  3.0203152210100610e+00 
 3.0598356450617898e+00  3.0998731886202391e+00  3.1404346181255631e+00  3.1815267885558884e+00 
 3.2231566445858220e+00  3.2653312217601145e+00  3.3080576476826891e+00  3.3513431432212188e+00 
 3.3951950237274744e+00  3.4396207002736321e+00  3.4846276809047656e+00  3.5302235719077242e+00 
 3.5764160790966075e+00  3.6232130091150752e+00  3.6706222707556808e+00  3.7186518762964798e+00 
 3.7673099428551309e+00  3.8166046937606803e+00  3.8665444599433632e+00  3.9171376813425267e+00 
 3.9683929083330041e+00  4.0203188031701478e+00  4.0729241414537762e+00  4.1262178136112624e+00 
 4.1802088264000474e+00  4.2349063044297957e+00  4.2903194917044782e+00  4.3464577531846347e+00 
 4.4033305763700694e+00  4.4609475729032635e+00  4.5193184801937640e+00  4.5784531630638341e+00 
 4.6383616154156222e+00  4.6990539619201650e+00  4.7605404597284844e+00  4.8228315002050364e+00 
 4.8859376106839285e+00  4.9498694562480301e+00  5.0146378415314050e+00  5.0802537125453222e+00 
 5.1467281585281563e+00  5.2140724138194905e+00  5.2822978597587582e+00  5.3514160266087050e+00 
 5.4214385955040365e+00  5.4923774004255570e+00  5.5642444302001373e+00  5.6370518305268629e+00 
 5.7108119060296758e+00  5.7855371223368923e+00  5.8612401081879222e+00  5.9379336575675543e+00 
 6.0156307318681819e+00  6.0943444620802687e+00  6.1740881510115750e+00  6.2548752755353298e+00 
 6.3367194888678595e+00  6.4196346228760124e+00  6.5036346904147821e+00  6.5887338876955122e+00 
 6.6749465966850883e+00  6.7622873875365208e+00  6.8507710210513464e+00  6.9404124511742262e+00 
 7.0312268275202090e+00  7.1232294979350419e+00  7.2164360110890016e+00  7.3108621191046499e+00 
 7.4065237802189872e+00  7.5034371614804236e+00  7.6016186414810711e+00  7.7010848131247025e+00 
 7.8018524864310796e+00  7.9039386913768261e+00  8.0073606807735551e+00  8.1121359331836267e+00 
 8.2182821558740766e+00  8.3258172878091745e+00  8.4347595026821622e+00  8.5451272119866477e+00 
 8.6569390681281888e+00  8.7702139675765931e+00  8.8849710540594788e+00  9.0012297217975892e+00 
 9.1190096187824832e+00  9.2383306500970743e+00  9.3592129812796525e+00  9.4816770417319010e+00 
 9.6057435281715264e+00  9.7314334081299947e+00  9.8587679234961900e+00  9.9877685941062779e+00 
 1.0118457221380625e+01  1.0250855892008293e+01  1.0384986981679738e+01  1.0520873158868362e+01 
 1.0658537388661529e+01  1.0798002936641730e+01  1.0939293372818517e+01  1.1082432575611886e+01 
 1.1227444735887794e+01  1.1374354361046473e+01  1.1523186279164230e+01  1.1673965643189467e+01 
 1.1826717935193569e+01  1.1981468970677451e+01  1.2138244902934456e+01  1.2297072227470231e+01 
 1.2457977786480670e+01  1.2620988773388218e+01  1.2786132737437642e+01  1.2953437588351926e+01 
 1.3122931601049077e+01  1.3294643420420648e+01  1.3468602066172814e+01  1.3644836937730732e+01 
 1.3823377819207165e+01  1.4004254884436016e+01  1.4187498702071819e+01  1.4373140240755891e+01 
 1.4561210874350117e+01  1.4751742387239197e+01  1.4944766979702296e+01  1.5140317273354954e+01 
 1.5338426316662257e+01  1.5539127590523986e+01  1.5742455013933142e+01  1.5948442949708220e+01 
 1.6157126210300632e+01  1.6368540063678111e+01  1.6582720239285059e+01  1.6799702934080926e+01 
 1.7019524818657569e+01  1.7242223043436681e+01  1.7467835244948294e+01  1.7696399552191441e+01 
 1.7927954593078052e+01  1.8162539500961156e+01  1.8400193921248526e+01  1.8640958018102825e+01 
 1.8884872481229472e+01  1.9131978532753269e+01  1.9382317934185092e+01  1.9635932993479553e+01 
 1.9892866572185330e+01  2.0153162092688756e+01  2.0416863545552321e+01  2.0684015496949193e+01 
 2.0954663096195006e+01  2.1228852083378204e+01  2.1506628797090215e+01  2.1788040182256790e+01 
 2.2073133798071812e+01  2.2361957826034899e+01  2.2654561078094211e+01  2.2950993004895764e+01 
 2.3251303704140732e+01  2.3555543929052053e+01  2.3863765096951852e+01  2.4176019297951107e+01 
 2.4492359303753027e+01  2.4812838576571423e+01  2.5137511278166208e+01  2.5466432278996717e+01 
 2.5799657167494953e+01  2.6137242259460166e+01  2.6479244607576401e+01  2.6825722011054481e+01 
 2.7176733025400235e+01  2.7532336972310542e+01  2.7892593949698789e+01  2.8257564841851615e+01 
 2.8627311329718442e+01  2.9001895901335772e+01  2.9381381862387737e+01  2.9765833346904980e+01 
 3.0155315328103413e+01  3.0549893629364920e+01  3.0949634935361431e+01  3.1354606803325154e+01 
 3.1764877674465627e+01  3.2180516885536569e+01  3.2601594680553916e+01  3.3028182222667219e+01 
 3.3460351606186414e+01  3.3898175868765946e+01  3.4341729003748227e+01  3.4791085972668775e+01 
 3.5246322717924862e+01  3.5707516175609932e+01  3.6174744288516031e+01  3.6648086019306270e+01 
 3.7127621363859767e+01  3.7613431364791083e+01  3.8105598125146656e+01  3.8604204822280458e+01 
 3.9109335721910902e+01  3.9621076192362345e+01  4.0139512718992293e+01  4.0664732918807680e+01 
 4.1196825555272341e+01  4.1735880553308270e+01  4.2281989014493142e+01  4.2835243232456691e+01 
 4.3395736708478537e+01  4.3963564167290180e+01  4.4538821573083624e+01  4.5121606145729629e+01 
 4.5712016377208045e+01  4.6310152048253229e+01  4.6916114245217209e+01  4.7530005377153536e+01 
 4.8151929193124595e+01  4.8781990799735631e+01  4.9420296678897600e+01  5.0066954705823385e+01 
 5.0722074167258661e+01  5.1385765779951633e+01  5.2058141709364513e+01  5.2739315588629694e+01 
 5.3429402537754022e+01  5.4128519183074381e+01  5.4836783676967791e+01  5.5554315717819456e+01 
 5.6281236570252076e+01  5.7017669085619858e+01  5.7763737722770678e+01  5.8519568569079937e+01 
 5.9285289361759595e+01  6.0061029509446122e+01  6.0846920114070798e+01  6.1643093993016421e+01 
 6.2449685701563290e+01  6.3266831555630006e+01  6.4094669654810801e+01  6.4933339905714789e+01 
 6.5782984045610462e+01  6.6643745666379701e+01  6.7515770238785137e+01  6.8399205137054977e+01 
 6.9294199663789712e+01  7.0200905075194541e+01  7.1119474606642001e+01  7.2050063498569216e+01 
 7.2992829022713806e+01  7.3947930508693247e+01  7.4915529370931878e+01  7.5895789135940404e+01 
 7.6888875469952211e+01  7.7894956206921563e+01  7.8914201376887263e+01  7.9946783234709088e+01 
 8.0992876289178653e+01  8.2052657332511998e+01  8.3126305470227777e+01  8.4214002151416679e+01 
 8.5315931199406634e+01  8.6432278842829476e+01  8.7563233747093918e+01  8.8708987046270607e+01 
 8.9869732375394065e+01  9.1045665903187640e+01  9.2236986365216339e+01  9.3443895097473714e+01 
 9.4666596070408062e+01  9.5905295923393979e+01  9.7160203999654826e+01  9.8431532381642469e+01 
 9.9719495926879020e+01  1.0102431230426924e+02  1.0234620203088653e+02  1.0368538850924091e+02 
 1.0504209806503459e+02  1.0641655998541164e+02  1.0780900655770792e+02  1.0921967310870831e+02 
 1.1064879804441745e+02  1.1209662289035096e+02  1.1356339233235373e+02  1.1504935425795253e+02 