
     Program PWSCF v.6.2 (svn rev. 14038) starts on 18May2018 at 10:45:40 

     This program is part of the open-source Quantum ESPRESSO suite
     for quantum simulation of materials; please cite
         "P. Giannozzi et al., J. Phys.:Condens. Matter 21 395502 (2009);
         "P. Giannozzi et al., J. Phys.:Condens. Matter 29 465901 (2017);
          URL http://www.quantum-espresso.org", 
     in publications or presentations arising from this work. More details at
     http://www.quantum-espresso.org/quote

     Parallel version (MPI), running on   360 processors

     MPI processes distributed on    10 nodes
     K-points division:     npool     =      10
     R & G space division:  proc/nbgrp/npool/nimage =      36
     Waiting for input...
     Reading input from standard input
Warning: card &CELL ignored
Warning: card   CELL_DYNAMICS = 'BFGS', ignored
Warning: card   CELL_DOFREE = 'Z', ignored
Warning: card   PRESS_CONV_THR = 0.02, ignored
Warning: card / ignored

     Current dimensions of program PWSCF are:
     Max number of different atomic species (ntypx) = 10
     Max number of k-points (npk) =  40000
     Max angular momentum in pseudopotentials (lmaxx) =  3
     Presently no symmetry can be used with electric field


     IMPORTANT: XC functional enforced from input :
     Exchange-correlation      = PBESOL ( 1  4 10  8 0 0)
     Any further DFT definition will be discarded
     Please, verify this is what you really want


     Subspace diagonalization in iterative solution of the eigenvalue problem:
     one sub-group per band group will be used
     custom distributed-memory algorithm (size of sub-group:  6*  6 procs)

     Found symmetry operation: I + ( -0.5000 -0.5000  0.0000)
     This is a supercell, fractional translations are disabled
 
     Parallelization info
     --------------------
     sticks:   dense  smooth     PW     G-vecs:    dense   smooth      PW
     Min          66      66     18                13985    13985    2026
     Max          68      68     19                14011    14011    2053
     Sum        2393    2393    665               503781   503781   73311
 


     bravais-lattice index     =            0
     lattice parameter (alat)  =      11.1887  a.u.
     unit-cell volume          =    8022.4856 (a.u.)^3
     number of atoms/cell      =           20
     number of atomic types    =            3
     number of electrons       =       160.00
     number of Kohn-Sham states=           96
     kinetic-energy cutoff     =      60.0000  Ry
     charge density cutoff     =     240.0000  Ry
     convergence threshold     =      1.0E-06
     mixing beta               =       0.3000
     number of iterations used =            8  plain     mixing
     Exchange-correlation      = PBESOL ( 1  4 10  8 0 0)
     nstep                     =          400


     celldm(1)=  11.188695  celldm(2)=   0.000000  celldm(3)=   0.000000
     celldm(4)=   0.000000  celldm(5)=   0.000000  celldm(6)=   0.000000

     crystal axes: (cart. coord. in units of alat)
               a(1) = (   1.000000   0.000000   0.000000 )  
               a(2) = (   0.000000   1.000000   0.000000 )  
               a(3) = (   0.000000   0.000000   5.727573 )  

     reciprocal axes: (cart. coord. in units 2 pi/alat)
               b(1) = (  1.000000  0.000000  0.000000 )  
               b(2) = (  0.000000  1.000000  0.000000 )  
               b(3) = (  0.000000  0.000000  0.174594 )  


     PseudoPot. # 1 for Ba read from file:
     ~/BTO-psp/ba.upf
     MD5 check sum: Not computed, couldn't open file
     Pseudo is Norm-conserving, Zval = 10.0
     Generated by new atomic code, or converted to UPF format
     Using radial grid of 1179 points,  3 beta functions with: 
                l(1) =   0
                l(2) =   1
                l(3) =   2

     PseudoPot. # 2 for Zr read from file:
     ~/BTO-psp/zr.upf
     MD5 check sum: Not computed, couldn't open file
     Pseudo is Norm-conserving, Zval = 12.0
     Generated by new atomic code, or converted to UPF format
     Using radial grid of 1171 points,  3 beta functions with: 
                l(1) =   0
                l(2) =   1
                l(3) =   2

     PseudoPot. # 3 for O  read from file:
     ~/BTO-psp/o.upf
     MD5 check sum: Not computed, couldn't open file
     Pseudo is Norm-conserving, Zval =  6.0
     Generated by new atomic code, or converted to UPF format
     Using radial grid of 1130 points,  1 beta functions with: 
                l(1) =   1

     atomic species   valence    mass     pseudopotential
        Ba            10.00   137.33000     Ba( 1.00)
        Zr            12.00    91.22400     Zr( 1.00)
        O              6.00    15.99900     O ( 1.00)

     No symmetry found


                                    s                        frac. trans.

      isym =  1     identity                                     

 cryst.   s( 1) = (     1          0          0      )
                  (     0          1          0      )
                  (     0          0          1      )

 cart.    s( 1) = (  1.0000000  0.0000000  0.0000000 )
                  (  0.0000000  1.0000000  0.0000000 )
                  (  0.0000000  0.0000000  1.0000000 )


   Cartesian axes

     site n.     atom                  positions (alat units)
         1           Ba  tau(   1) = (   0.0000000   0.0000000   0.7071068  )
         2           Ba  tau(   2) = (   0.5000000   0.5000000   0.7071068  )
         3           Zr  tau(   3) = (   0.5000000   0.0000000   1.0606602  )
         4           Zr  tau(   4) = (   0.0000000   0.5000000   1.0606602  )
         5           O   tau(   5) = (   0.5000000   0.0000000   0.7071068  )
         6           O   tau(   6) = (   0.0000000   0.5000000   0.7071068  )
         7           O   tau(   7) = (   0.2500000   0.7500000   1.0606602  )
         8           O   tau(   8) = (   0.7500000   0.2500000   1.0606602  )
         9           O   tau(   9) = (   0.2500000   0.2500000   1.0606602  )
        10           O   tau(  10) = (   0.7500000   0.7500000   1.0606602  )
        11           Ba  tau(  11) = (   0.0000000   0.0000000   1.4142136  )
        12           Ba  tau(  12) = (   0.5000000   0.5000000   1.4142136  )
        13           Zr  tau(  13) = (   0.5000000   0.0000000   1.7677670  )
        14           Zr  tau(  14) = (   0.0000000   0.5000000   1.7677670  )
        15           O   tau(  15) = (   0.5000000   0.0000000   1.4142136  )
        16           O   tau(  16) = (   0.0000000   0.5000000   1.4142136  )
        17           O   tau(  17) = (   0.2500000   0.7500000   1.7677670  )
        18           O   tau(  18) = (   0.7500000   0.2500000   1.7677670  )
        19           O   tau(  19) = (   0.2500000   0.2500000   1.7677670  )
        20           O   tau(  20) = (   0.7500000   0.7500000   1.7677670  )

   Crystallographic axes

     site n.     atom                  positions (cryst. coord.)
         1           Ba  tau(   1) = (  0.0000000  0.0000000  0.1234566  )
         2           Ba  tau(   2) = (  0.5000000  0.5000000  0.1234566  )
         3           Zr  tau(   3) = (  0.5000000  0.0000000  0.1851849  )
         4           Zr  tau(   4) = (  0.0000000  0.5000000  0.1851849  )
         5           O   tau(   5) = (  0.5000000  0.0000000  0.1234566  )
         6           O   tau(   6) = (  0.0000000  0.5000000  0.1234566  )
         7           O   tau(   7) = (  0.2500000  0.7500000  0.1851849  )
         8           O   tau(   8) = (  0.7500000  0.2500000  0.1851849  )
         9           O   tau(   9) = (  0.2500000  0.2500000  0.1851849  )
        10           O   tau(  10) = (  0.7500000  0.7500000  0.1851849  )
        11           Ba  tau(  11) = (  0.0000000  0.0000000  0.2469133  )
        12           Ba  tau(  12) = (  0.5000000  0.5000000  0.2469133  )
        13           Zr  tau(  13) = (  0.5000000  0.0000000  0.3086416  )
        14           Zr  tau(  14) = (  0.0000000  0.5000000  0.3086416  )
        15           O   tau(  15) = (  0.5000000  0.0000000  0.2469133  )
        16           O   tau(  16) = (  0.0000000  0.5000000  0.2469133  )
        17           O   tau(  17) = (  0.2500000  0.7500000  0.3086416  )
        18           O   tau(  18) = (  0.7500000  0.2500000  0.3086416  )
        19           O   tau(  19) = (  0.2500000  0.2500000  0.3086416  )
        20           O   tau(  20) = (  0.7500000  0.7500000  0.3086416  )

     number of k points=    20  gaussian smearing, width (Ry)=  0.0020
                       cart. coord. in units 2pi/alat
        k(    1) = (   0.0000000   0.0000000   0.0000000), wk =   0.0555556
        k(    2) = (   0.0000000   0.1666667   0.0000000), wk =   0.1111111
        k(    3) = (   0.0000000   0.3333333   0.0000000), wk =   0.1111111
        k(    4) = (   0.0000000  -0.5000000   0.0000000), wk =   0.0555556
        k(    5) = (   0.1666667   0.0000000   0.0000000), wk =   0.1111111
        k(    6) = (   0.1666667   0.1666667   0.0000000), wk =   0.1111111
        k(    7) = (   0.1666667   0.3333333   0.0000000), wk =   0.1111111
        k(    8) = (   0.1666667  -0.5000000   0.0000000), wk =   0.1111111
        k(    9) = (   0.1666667  -0.3333333   0.0000000), wk =   0.1111111
        k(   10) = (   0.1666667  -0.1666667   0.0000000), wk =   0.1111111
        k(   11) = (   0.3333333   0.0000000   0.0000000), wk =   0.1111111
        k(   12) = (   0.3333333   0.1666667   0.0000000), wk =   0.1111111
        k(   13) = (   0.3333333   0.3333333   0.0000000), wk =   0.1111111
        k(   14) = (   0.3333333  -0.5000000   0.0000000), wk =   0.1111111
        k(   15) = (   0.3333333  -0.3333333   0.0000000), wk =   0.1111111
        k(   16) = (   0.3333333  -0.1666667   0.0000000), wk =   0.1111111
        k(   17) = (  -0.5000000   0.0000000   0.0000000), wk =   0.0555556
        k(   18) = (  -0.5000000   0.1666667   0.0000000), wk =   0.1111111
        k(   19) = (  -0.5000000   0.3333333   0.0000000), wk =   0.1111111
        k(   20) = (  -0.5000000  -0.5000000   0.0000000), wk =   0.0555556

                       cryst. coord.
        k(    1) = (   0.0000000   0.0000000   0.0000000), wk =   0.0555556
        k(    2) = (   0.0000000   0.1666667   0.0000000), wk =   0.1111111
        k(    3) = (   0.0000000   0.3333333   0.0000000), wk =   0.1111111
        k(    4) = (   0.0000000  -0.5000000   0.0000000), wk =   0.0555556
        k(    5) = (   0.1666667   0.0000000   0.0000000), wk =   0.1111111
        k(    6) = (   0.1666667   0.1666667   0.0000000), wk =   0.1111111
        k(    7) = (   0.1666667   0.3333333   0.0000000), wk =   0.1111111
        k(    8) = (   0.1666667  -0.5000000   0.0000000), wk =   0.1111111
        k(    9) = (   0.1666667  -0.3333333   0.0000000), wk =   0.1111111
        k(   10) = (   0.1666667  -0.1666667   0.0000000), wk =   0.1111111
        k(   11) = (   0.3333333   0.0000000   0.0000000), wk =   0.1111111
        k(   12) = (   0.3333333   0.1666667   0.0000000), wk =   0.1111111
        k(   13) = (   0.3333333   0.3333333   0.0000000), wk =   0.1111111
        k(   14) = (   0.3333333  -0.5000000   0.0000000), wk =   0.1111111
        k(   15) = (   0.3333333  -0.3333333   0.0000000), wk =   0.1111111
        k(   16) = (   0.3333333  -0.1666667   0.0000000), wk =   0.1111111
        k(   17) = (  -0.5000000   0.0000000   0.0000000), wk =   0.0555556
        k(   18) = (  -0.5000000   0.1666667   0.0000000), wk =   0.1111111
        k(   19) = (  -0.5000000   0.3333333   0.0000000), wk =   0.1111111
        k(   20) = (  -0.5000000  -0.5000000   0.0000000), wk =   0.0555556

     Dense  grid:   503781 G-vectors     FFT dimensions: (  60,  60, 320)

     Dynamical RAM for                 wfc:       2.56 MB

     Dynamical RAM for     wfc (w. buffer):       7.68 MB

     Dynamical RAM for           str. fact:       0.64 MB

     Dynamical RAM for           local pot:       0.00 MB

     Dynamical RAM for          nlocal pot:       2.88 MB

     Dynamical RAM for                qrad:       1.90 MB

     Dynamical RAM for          rho,v,vnew:       1.38 MB

     Dynamical RAM for               rhoin:       0.46 MB

     Dynamical RAM for            rho*nmix:       3.42 MB

     Dynamical RAM for           G-vectors:       0.91 MB

     Dynamical RAM for          h,s,v(r/c):       0.19 MB

     Dynamical RAM for          <psi|beta>:       0.16 MB

     Dynamical RAM for                 psi:      10.24 MB

     Dynamical RAM for                hpsi:      10.24 MB

     Dynamical RAM for      wfcinit/wfcrot:       5.33 MB

     Estimated static dynamical RAM per process >      21.36 MB

     Estimated max dynamical RAM per process >      42.19 MB

     Estimated total dynamical RAM >      14.83 GB

     Initial potential from superposition of free atoms
     Check: negative starting charge=   -0.002596

     starting charge  135.99998, renormalised to  160.00000

     negative rho (up, down):  3.054E-03 0.000E+00
 
     Adding external electric field

     Computed dipole along edir(3) : 
        Elec. dipole         -0.5236 Ry au,         -1.3308 Debye
        Ion. dipole          -0.5119 Ry au,         -1.3011 Debye
        Dipole                7.4462 Ry au,         18.9264 Debye
        Dipole field          0.0117 Ry au, 
 
        Potential amp.       -1.4508 Ry
        Total length         62.1943 bohr
 
     Starting wfc are random

     total cpu time spent up to now is        3.2 secs

     Self-consistent Calculation

     iteration #  1     ecut=    60.00 Ry     beta= 0.30
     Davidson diagonalization with overlap
     ethr =  1.00E-02,  avg # of iterations =  9.9

     negative rho (up, down):  2.735E-04 0.000E+00
 
     Adding external electric field

     Computed dipole along edir(3) : 
        Elec. dipole          0.0296 Ry au,          0.0752 Debye
        Ion. dipole          -0.5119 Ry au,         -1.3011 Debye
        Dipole             -345.6755 Ry au,       -878.6194 Debye
        Dipole field         -0.5415 Ry au, 
 
        Potential amp.       67.3520 Ry
        Total length         62.1943 bohr
 

     total cpu time spent up to now is        8.5 secs

     total energy              =    1303.97346030 Ry
     Harris-Foulkes estimate   =    -810.11488566 Ry
     estimated scf accuracy    <    4551.92609353 Ry

     iteration #  2     ecut=    60.00 Ry     beta= 0.30
     Davidson diagonalization with overlap
     ethr =  1.00E-02,  avg # of iterations = 28.6

     negative rho (up, down):  4.106E-06 0.000E+00
 
     Adding external electric field

     Computed dipole along edir(3) : 
        Elec. dipole         -0.2913 Ry au,         -0.7404 Debye
        Ion. dipole          -0.5119 Ry au,         -1.3011 Debye
        Dipole             -140.8221 Ry au,       -357.9341 Debye
        Dipole field         -0.2206 Ry au, 
 
        Potential amp.       27.4380 Ry
        Total length         62.1943 bohr
 

     total cpu time spent up to now is       22.2 secs

     total energy              =      63.19497851 Ry
     Harris-Foulkes estimate   =   -3474.05919477 Ry
     estimated scf accuracy    <   23349.60869261 Ry

     iteration #  3     ecut=    60.00 Ry     beta= 0.30
     Davidson diagonalization with overlap
     ethr =  1.00E-02,  avg # of iterations = 20.0

     negative rho (up, down):  3.477E-06 0.000E+00
 
     Adding external electric field

     Computed dipole along edir(3) : 
        Elec. dipole         -0.3190 Ry au,         -0.8108 Debye
        Ion. dipole          -0.5119 Ry au,         -1.3011 Debye
        Dipole             -123.1591 Ry au,       -313.0392 Debye
        Dipole field         -0.1929 Ry au, 
 
        Potential amp.       23.9965 Ry
        Total length         62.1943 bohr
 

     total cpu time spent up to now is       32.0 secs

     total energy              =   -1018.07611863 Ry
     Harris-Foulkes estimate   =   -1877.49510469 Ry
     estimated scf accuracy    <    4164.66057117 Ry

     iteration #  4     ecut=    60.00 Ry     beta= 0.30
     Davidson diagonalization with overlap
     c_bands:  5 eigenvalues not converged
     ethr =  1.00E-02,  avg # of iterations = 21.9

     negative rho (up, down):  2.789E-06 0.000E+00
 
     Adding external electric field

     Computed dipole along edir(3) : 
        Elec. dipole         -0.3442 Ry au,         -0.8749 Debye
        Ion. dipole          -0.5119 Ry au,         -1.3011 Debye
        Dipole             -107.0550 Ry au,       -272.1067 Debye
        Dipole field         -0.1677 Ry au, 
 
        Potential amp.       20.8588 Ry
        Total length         62.1943 bohr
 

     total cpu time spent up to now is       41.7 secs

     total energy              =   -1037.78399713 Ry
     Harris-Foulkes estimate   =   -1197.02972872 Ry
     estimated scf accuracy    <     741.98139892 Ry

     iteration #  5     ecut=    60.00 Ry     beta= 0.30
     Davidson diagonalization with overlap
     ethr =  1.00E-02,  avg # of iterations = 12.1

     negative rho (up, down):  2.139E-06 0.000E+00
 
     Adding external electric field

     Computed dipole along edir(3) : 
        Elec. dipole         -0.3671 Ry au,         -0.9332 Debye
        Ion. dipole          -0.5119 Ry au,         -1.3011 Debye
        Dipole              -92.4155 Ry au,       -234.8968 Debye
        Dipole field         -0.1448 Ry au, 
 
        Potential amp.       18.0064 Ry
        Total length         62.1943 bohr
 

     total cpu time spent up to now is       45.6 secs

     total energy              =    -993.13471337 Ry
     Harris-Foulkes estimate   =   -1111.62718173 Ry
     estimated scf accuracy    <     776.24215106 Ry

     iteration #  6     ecut=    60.00 Ry     beta= 0.30
     Davidson diagonalization with overlap
     ethr =  1.00E-02,  avg # of iterations = 13.4

     negative rho (up, down):  1.967E-06 0.000E+00
 
     Adding external electric field

     Computed dipole along edir(3) : 
        Elec. dipole         -0.3721 Ry au,         -0.9457 Debye
        Ion. dipole          -0.5119 Ry au,         -1.3011 Debye
        Dipole              -89.2668 Ry au,       -226.8937 Debye
        Dipole field         -0.1398 Ry au, 
 
        Potential amp.       17.3929 Ry
        Total length         62.1943 bohr
 

     total cpu time spent up to now is       50.9 secs

     total energy              =   -1030.76043076 Ry
     Harris-Foulkes estimate   =   -1051.87868161 Ry
     estimated scf accuracy    <     118.68258943 Ry

     iteration #  7     ecut=    60.00 Ry     beta= 0.30
     Davidson diagonalization with overlap
     ethr =  1.00E-02,  avg # of iterations =  8.7

     negative rho (up, down):  1.846E-06 0.000E+00
 
     Adding external electric field

     Computed dipole along edir(3) : 
        Elec. dipole         -0.3762 Ry au,         -0.9562 Debye
        Ion. dipole          -0.5119 Ry au,         -1.3011 Debye
        Dipole              -86.6270 Ry au,       -220.1838 Debye
        Dipole field         -0.1357 Ry au, 
 
        Potential amp.       16.8785 Ry
        Total length         62.1943 bohr
 

     total cpu time spent up to now is       54.0 secs

     total energy              =   -1033.42459926 Ry
     Harris-Foulkes estimate   =   -1040.08323535 Ry
     estimated scf accuracy    <     136.36793398 Ry

     iteration #  8     ecut=    60.00 Ry     beta= 0.30
     Davidson diagonalization with overlap
     ethr =  1.00E-02,  avg # of iterations =  2.6

     negative rho (up, down):  1.172E-06 0.000E+00
 
     Adding external electric field

     Computed dipole along edir(3) : 
        Elec. dipole         -0.4015 Ry au,         -1.0205 Debye
        Ion. dipole          -0.5119 Ry au,         -1.3011 Debye
        Dipole              -70.4920 Ry au,       -179.1729 Debye
        Dipole field         -0.1104 Ry au, 
 
        Potential amp.       13.7348 Ry
        Total length         62.1943 bohr
 

     total cpu time spent up to now is       55.5 secs

     total energy              =    -997.59498712 Ry
     Harris-Foulkes estimate   =   -1037.55814015 Ry
     estimated scf accuracy    <     138.42169651 Ry

     iteration #  9     ecut=    60.00 Ry     beta= 0.30
     Davidson diagonalization with overlap
     ethr =  1.00E-02,  avg # of iterations =  2.8

     negative rho (up, down):  5.316E-07 0.000E+00
 
     Adding external electric field

     Computed dipole along edir(3) : 
        Elec. dipole         -0.4216 Ry au,         -1.0715 Debye
        Ion. dipole          -0.5119 Ry au,         -1.3011 Debye
        Dipole              -57.6592 Ry au,       -146.5551 Debye
        Dipole field         -0.0903 Ry au, 
 
        Potential amp.       11.2344 Ry
        Total length         62.1943 bohr
 

     total cpu time spent up to now is       57.3 secs

     total energy              =    -985.63361392 Ry
     Harris-Foulkes estimate   =   -1005.81121326 Ry
     estimated scf accuracy    <      47.38043065 Ry

     iteration # 10     ecut=    60.00 Ry     beta= 0.30
     Davidson diagonalization with overlap
     ethr =  1.00E-02,  avg # of iterations =  1.5

     negative rho (up, down):  8.586E-01 0.000E+00
 
     Adding external electric field

     Computed dipole along edir(3) : 
        Elec. dipole         -0.4865 Ry au,         -1.2366 Debye
        Ion. dipole          -0.5119 Ry au,         -1.3011 Debye
        Dipole              -16.1979 Ry au,        -41.1711 Debye
        Dipole field         -0.0254 Ry au, 
 
        Potential amp.        3.1560 Ry
        Total length         62.1943 bohr
 

     total cpu time spent up to now is       58.7 secs

     total energy              =    -965.88442969 Ry
     Harris-Foulkes estimate   =    -991.01754242 Ry
     estimated scf accuracy    <      30.53813251 Ry

     iteration # 11     ecut=    60.00 Ry     beta= 0.30
     Davidson diagonalization with overlap
     ethr =  1.00E-02,  avg # of iterations = 13.4

     negative rho (up, down):  8.421E-01 0.000E+00
 
     Adding external electric field

     Computed dipole along edir(3) : 
        Elec. dipole         -0.4830 Ry au,         -1.2276 Debye
        Ion. dipole          -0.5119 Ry au,         -1.3011 Debye
        Dipole              -18.4590 Ry au,        -46.9182 Debye
        Dipole field         -0.0289 Ry au, 
 
        Potential amp.        3.5966 Ry
        Total length         62.1943 bohr
 

     total cpu time spent up to now is       65.0 secs

     total energy              =   -1153.85164796 Ry
     Harris-Foulkes estimate   =   -1134.32087250 Ry
     estimated scf accuracy    <   20132.52942045 Ry

     iteration # 12     ecut=    60.00 Ry     beta= 0.30
     Davidson diagonalization with overlap
     ethr =  1.00E-02,  avg # of iterations =  4.2

     negative rho (up, down):  6.233E-01 0.000E+00
 
     Adding external electric field

     Computed dipole along edir(3) : 
        Elec. dipole         -0.4820 Ry au,         -1.2251 Debye
        Ion. dipole          -0.5119 Ry au,         -1.3011 Debye
        Dipole              -19.1017 Ry au,        -48.5516 Debye
        Dipole field         -0.0299 Ry au, 
 
        Potential amp.        3.7218 Ry
        Total length         62.1943 bohr
 

     total cpu time spent up to now is       66.6 secs

     total energy              =   -1073.25361516 Ry
     Harris-Foulkes estimate   =   -1155.70155607 Ry
     estimated scf accuracy    <   23902.43448600 Ry

     iteration # 13     ecut=    60.00 Ry     beta= 0.30
     Davidson diagonalization with overlap
     ethr =  1.00E-02,  avg # of iterations =  5.2

     negative rho (up, down):  1.771E-01 0.000E+00
 
     Adding external electric field

     Computed dipole along edir(3) : 
        Elec. dipole         -0.4765 Ry au,         -1.2111 Debye
        Ion. dipole          -0.5119 Ry au,         -1.3011 Debye
        Dipole              -22.6017 Ry au,        -57.4479 Debye
        Dipole field         -0.0354 Ry au, 
 
        Potential amp.        4.4038 Ry
        Total length         62.1943 bohr
 

     total cpu time spent up to now is       68.8 secs

     total energy              =    -987.61969175 Ry
     Harris-Foulkes estimate   =   -1089.58793274 Ry
     estimated scf accuracy    <   15774.08054622 Ry

     iteration # 14     ecut=    60.00 Ry     beta= 0.30
     Davidson diagonalization with overlap
     ethr =  1.00E-02,  avg # of iterations = 11.2

     negative rho (up, down):  2.130E-01 0.000E+00
 
     Adding external electric field

     Computed dipole along edir(3) : 
        Elec. dipole         -0.4728 Ry au,         -1.2018 Debye
        Ion. dipole          -0.5119 Ry au,         -1.3011 Debye
        Dipole              -24.9405 Ry au,        -63.3923 Debye
        Dipole field         -0.0391 Ry au, 
 
        Potential amp.        4.8594 Ry
        Total length         62.1943 bohr
 

     total cpu time spent up to now is       72.5 secs

     total energy              =    -975.65406692 Ry
     Harris-Foulkes estimate   =   -1007.61525432 Ry
     estimated scf accuracy    <    6651.74810329 Ry

     iteration # 15     ecut=    60.00 Ry     beta= 0.30
     Davidson diagonalization with overlap
     ethr =  1.00E-02,  avg # of iterations = 11.2

     negative rho (up, down):  3.946E-01 0.000E+00
 
     Adding external electric field

     Computed dipole along edir(3) : 
        Elec. dipole         -0.4721 Ry au,         -1.1999 Debye
        Ion. dipole          -0.5119 Ry au,         -1.3011 Debye
        Dipole              -25.4243 Ry au,        -64.6220 Debye
        Dipole field         -0.0398 Ry au, 
 
        Potential amp.        4.9537 Ry
        Total length         62.1943 bohr
 

     total cpu time spent up to now is       76.4 secs

     total energy              =    -977.98407042 Ry
     Harris-Foulkes estimate   =    -996.93826243 Ry
     estimated scf accuracy    <    1782.47742100 Ry

     iteration # 16     ecut=    60.00 Ry     beta= 0.30
     Davidson diagonalization with overlap
     ethr =  1.00E-02,  avg # of iterations =  5.0

     negative rho (up, down):  4.107E-01 0.000E+00
 
     Adding external electric field

     Computed dipole along edir(3) : 
        Elec. dipole         -0.4714 Ry au,         -1.1981 Debye
        Ion. dipole          -0.5119 Ry au,         -1.3011 Debye
        Dipole              -25.8744 Ry au,        -65.7662 Debye
        Dipole field         -0.0405 Ry au, 
 
        Potential amp.        5.0414 Ry
        Total length         62.1943 bohr
 

     total cpu time spent up to now is       78.4 secs

     total energy              =    -995.26318742 Ry
     Harris-Foulkes estimate   =    -989.94792576 Ry
     estimated scf accuracy    <    3246.83676936 Ry

     iteration # 17     ecut=    60.00 Ry     beta= 0.30
     Davidson diagonalization with overlap
     ethr =  1.00E-02,  avg # of iterations =  4.7

     negative rho (up, down):  2.578E-01 0.000E+00
 
     Adding external electric field

     Computed dipole along edir(3) : 
        Elec. dipole         -0.4735 Ry au,         -1.2035 Debye
        Ion. dipole          -0.5119 Ry au,         -1.3011 Debye
        Dipole              -24.5190 Ry au,        -62.3210 Debye
        Dipole field         -0.0384 Ry au, 
 
        Potential amp.        4.7773 Ry
        Total length         62.1943 bohr
 

     total cpu time spent up to now is       80.3 secs

     total energy              =   -1005.36548992 Ry
     Harris-Foulkes estimate   =    -999.17209492 Ry
     estimated scf accuracy    <    4343.94675687 Ry

     iteration # 18     ecut=    60.00 Ry     beta= 0.30
     Davidson diagonalization with overlap
     ethr =  1.00E-02,  avg # of iterations =  5.9

     negative rho (up, down):  1.499E+00 0.000E+00
 
     Adding external electric field

     Computed dipole along edir(3) : 
        Elec. dipole         -0.4707 Ry au,         -1.1965 Debye
        Ion. dipole          -0.5119 Ry au,         -1.3011 Debye
        Dipole              -26.2747 Ry au,        -66.7836 Debye
        Dipole field         -0.0412 Ry au, 
 
        Potential amp.        5.1194 Ry
        Total length         62.1943 bohr
 

     total cpu time spent up to now is       82.5 secs

     total energy              =    -904.81213763 Ry
     Harris-Foulkes estimate   =   -1006.98067959 Ry
     estimated scf accuracy    <    5346.88225827 Ry

     iteration # 19     ecut=    60.00 Ry     beta= 0.30
     Davidson diagonalization with overlap
     ethr =  1.00E-02,  avg # of iterations =  9.2

     negative rho (up, down):  2.209E+00 0.000E+00
 
     Adding external electric field

     Computed dipole along edir(3) : 
        Elec. dipole         -0.4888 Ry au,         -1.2423 Debye
        Ion. dipole          -0.5119 Ry au,         -1.3011 Debye
        Dipole              -14.7693 Ry au,        -37.5398 Debye
        Dipole field         -0.0231 Ry au, 
 
        Potential amp.        2.8777 Ry
        Total length         62.1943 bohr
 

     total cpu time spent up to now is       86.0 secs

     total energy              =    -959.73033452 Ry
     Harris-Foulkes estimate   =    -975.47591568 Ry
     estimated scf accuracy    <     371.94198254 Ry

     iteration # 20     ecut=    60.00 Ry     beta= 0.30
     Davidson diagonalization with overlap
     ethr =  1.00E-02,  avg # of iterations = 10.1

     negative rho (up, down):  9.667E-01 0.000E+00
 
     Adding external electric field

     Computed dipole along edir(3) : 
        Elec. dipole         -0.4911 Ry au,         -1.2483 Debye
        Ion. dipole          -0.5119 Ry au,         -1.3011 Debye
        Dipole              -13.2603 Ry au,        -33.7044 Debye
        Dipole field         -0.0208 Ry au, 
 
        Potential amp.        2.5837 Ry
        Total length         62.1943 bohr
 

     total cpu time spent up to now is       88.8 secs

     total energy              =    -961.54050021 Ry
     Harris-Foulkes estimate   =    -968.65425062 Ry
     estimated scf accuracy    <      31.67284214 Ry

     iteration # 21     ecut=    60.00 Ry     beta= 0.30
     Davidson diagonalization with overlap
     ethr =  1.00E-02,  avg # of iterations =  4.4

     negative rho (up, down):  7.899E-01 0.000E+00
 
     Adding external electric field

     Computed dipole along edir(3) : 
        Elec. dipole         -0.4976 Ry au,         -1.2647 Debye
        Ion. dipole          -0.5119 Ry au,         -1.3011 Debye
        Dipole               -9.1424 Ry au,        -23.2377 Debye
        Dipole field         -0.0143 Ry au, 
 
        Potential amp.        1.7813 Ry
        Total length         62.1943 bohr
 

     total cpu time spent up to now is       90.8 secs

     total energy              =    -964.63277062 Ry
     Harris-Foulkes estimate   =    -965.53721989 Ry
     estimated scf accuracy    <      13.31407011 Ry

     iteration # 22     ecut=    60.00 Ry     beta= 0.30
     Davidson diagonalization with overlap
     ethr =  8.32E-03,  avg # of iterations =  1.4

     negative rho (up, down):  6.337E-01 0.000E+00
 
     Adding external electric field

     Computed dipole along edir(3) : 
        Elec. dipole         -0.5096 Ry au,         -1.2953 Debye
        Ion. dipole          -0.5119 Ry au,         -1.3011 Debye
        Dipole               -1.4562 Ry au,         -3.7012 Debye
        Dipole field         -0.0023 Ry au, 
 
        Potential amp.        0.2837 Ry
        Total length         62.1943 bohr
 

     total cpu time spent up to now is       92.1 secs

     total energy              =    -963.29905952 Ry
     Harris-Foulkes estimate   =    -965.01992509 Ry
     estimated scf accuracy    <      13.96055338 Ry

     iteration # 23     ecut=    60.00 Ry     beta= 0.30
     Davidson diagonalization with overlap
     ethr =  8.32E-03,  avg # of iterations =  2.7

     negative rho (up, down):  4.676E-01 0.000E+00
 
     Adding external electric field

     Computed dipole along edir(3) : 
        Elec. dipole         -0.5120 Ry au,         -1.3015 Debye
        Ion. dipole          -0.5119 Ry au,         -1.3011 Debye
        Dipole                0.0958 Ry au,          0.2436 Debye
        Dipole field          0.0002 Ry au, 
 
        Potential amp.       -0.0187 Ry
        Total length         62.1943 bohr
 

     total cpu time spent up to now is       93.6 secs

     total energy              =    -963.12922057 Ry
     Harris-Foulkes estimate   =    -963.87865558 Ry
     estimated scf accuracy    <      12.45268188 Ry

     iteration # 24     ecut=    60.00 Ry     beta= 0.30
     Davidson diagonalization with overlap
     ethr =  7.78E-03,  avg # of iterations =  3.1

     negative rho (up, down):  3.564E-01 0.000E+00
 
     Adding external electric field

     Computed dipole along edir(3) : 
        Elec. dipole         -0.5118 Ry au,         -1.3009 Debye
        Ion. dipole          -0.5119 Ry au,         -1.3011 Debye
        Dipole               -0.0502 Ry au,         -0.1275 Debye
        Dipole field         -0.0001 Ry au, 
 
        Potential amp.        0.0098 Ry
        Total length         62.1943 bohr
 

     total cpu time spent up to now is       95.1 secs

     total energy              =    -963.42059539 Ry
     Harris-Foulkes estimate   =    -963.58332651 Ry
     estimated scf accuracy    <       1.66774957 Ry

     iteration # 25     ecut=    60.00 Ry     beta= 0.30
     Davidson diagonalization with overlap
     ethr =  1.04E-03,  avg # of iterations =  7.7

     negative rho (up, down):  2.627E-01 0.000E+00
 
     Adding external electric field

     Computed dipole along edir(3) : 
        Elec. dipole         -0.5114 Ry au,         -1.2998 Debye
        Ion. dipole          -0.5119 Ry au,         -1.3011 Debye
        Dipole               -0.3296 Ry au,         -0.8379 Debye
        Dipole field         -0.0005 Ry au, 
 
        Potential amp.        0.0642 Ry
        Total length         62.1943 bohr
 

     total cpu time spent up to now is       97.3 secs

     total energy              =    -963.50595992 Ry
     Harris-Foulkes estimate   =    -963.59391882 Ry
     estimated scf accuracy    <       0.29217210 Ry

     iteration # 26     ecut=    60.00 Ry     beta= 0.30
     Davidson diagonalization with overlap
     ethr =  1.83E-04,  avg # of iterations =  7.0

     negative rho (up, down):  8.693E-02 0.000E+00
 
     Adding external electric field

     Computed dipole along edir(3) : 
        Elec. dipole         -0.5121 Ry au,         -1.3017 Debye
        Ion. dipole          -0.5119 Ry au,         -1.3011 Debye
        Dipole                0.1535 Ry au,          0.3903 Debye
        Dipole field          0.0002 Ry au, 
 
        Potential amp.       -0.0299 Ry
        Total length         62.1943 bohr
 

     total cpu time spent up to now is       99.8 secs

     total energy              =    -963.53575108 Ry
     Harris-Foulkes estimate   =    -963.55137675 Ry
     estimated scf accuracy    <       0.06438552 Ry

     iteration # 27     ecut=    60.00 Ry     beta= 0.30
     Davidson diagonalization with overlap
     ethr =  4.02E-05,  avg # of iterations =  7.7

     negative rho (up, down):  3.290E-02 0.000E+00
 
     Adding external electric field

     Computed dipole along edir(3) : 
        Elec. dipole         -0.5120 Ry au,         -1.3013 Debye
        Ion. dipole          -0.5119 Ry au,         -1.3011 Debye
        Dipole                0.0389 Ry au,          0.0990 Debye
        Dipole field          0.0001 Ry au, 
 
        Potential amp.       -0.0076 Ry
        Total length         62.1943 bohr
 

     total cpu time spent up to now is      103.0 secs

     total energy              =    -963.53974578 Ry
     Harris-Foulkes estimate   =    -963.54209512 Ry
     estimated scf accuracy    <       0.01774757 Ry

     iteration # 28     ecut=    60.00 Ry     beta= 0.30
     Davidson diagonalization with overlap
     ethr =  1.11E-05,  avg # of iterations =  7.1

     negative rho (up, down):  1.655E-02 0.000E+00
 
     Adding external electric field

     Computed dipole along edir(3) : 
        Elec. dipole         -0.5113 Ry au,         -1.2997 Debye
        Ion. dipole          -0.5119 Ry au,         -1.3011 Debye
        Dipole               -0.3514 Ry au,         -0.8931 Debye
        Dipole field         -0.0006 Ry au, 
 
        Potential amp.        0.0685 Ry
        Total length         62.1943 bohr
 

     total cpu time spent up to now is      105.3 secs

     total energy              =    -963.53775236 Ry
     Harris-Foulkes estimate   =    -963.54034250 Ry
     estimated scf accuracy    <       0.00756276 Ry

     iteration # 29     ecut=    60.00 Ry     beta= 0.30
     Davidson diagonalization with overlap
     ethr =  4.73E-06,  avg # of iterations = 11.6

     negative rho (up, down):  4.280E-03 0.000E+00
 
     Adding external electric field

     Computed dipole along edir(3) : 
        Elec. dipole         -0.5112 Ry au,         -1.2992 Debye
        Ion. dipole          -0.5119 Ry au,         -1.3011 Debye
        Dipole               -0.4703 Ry au,         -1.1953 Debye
        Dipole field         -0.0007 Ry au, 
 
        Potential amp.        0.0916 Ry
        Total length         62.1943 bohr
 

     total cpu time spent up to now is      108.6 secs

     total energy              =    -963.53871916 Ry
     Harris-Foulkes estimate   =    -963.53922970 Ry
     estimated scf accuracy    <       0.00236462 Ry

     iteration # 30     ecut=    60.00 Ry     beta= 0.30
     Davidson diagonalization with overlap
     ethr =  1.48E-06,  avg # of iterations =  8.3

     negative rho (up, down):  1.909E-03 0.000E+00
 
     Adding external electric field

     Computed dipole along edir(3) : 
        Elec. dipole         -0.5109 Ry au,         -1.2987 Debye
        Ion. dipole          -0.5119 Ry au,         -1.3011 Debye
        Dipole               -0.6138 Ry au,         -1.5600 Debye
        Dipole field         -0.0010 Ry au, 
 
        Potential amp.        0.1196 Ry
        Total length         62.1943 bohr
 

     total cpu time spent up to now is      111.7 secs

     total energy              =    -963.53902394 Ry
     Harris-Foulkes estimate   =    -963.53889343 Ry
     estimated scf accuracy    <       0.00062651 Ry

     iteration # 31     ecut=    60.00 Ry     beta= 0.30
     Davidson diagonalization with overlap
     ethr =  3.92E-07,  avg # of iterations =  7.7

     negative rho (up, down):  1.805E-03 0.000E+00
 
     Adding external electric field

     Computed dipole along edir(3) : 
        Elec. dipole         -0.5108 Ry au,         -1.2983 Debye
        Ion. dipole          -0.5119 Ry au,         -1.3011 Debye
        Dipole               -0.6989 Ry au,         -1.7764 Debye
        Dipole field         -0.0011 Ry au, 
 
        Potential amp.        0.1362 Ry
        Total length         62.1943 bohr
 

     total cpu time spent up to now is      114.3 secs

     total energy              =    -963.53908476 Ry
     Harris-Foulkes estimate   =    -963.53888518 Ry
     estimated scf accuracy    <       0.00015824 Ry

     iteration # 32     ecut=    60.00 Ry     beta= 0.30
     Davidson diagonalization with overlap
     ethr =  9.89E-08,  avg # of iterations =  4.5

     negative rho (up, down):  1.000E-03 0.000E+00
 
     Adding external electric field

     Computed dipole along edir(3) : 
        Elec. dipole         -0.5108 Ry au,         -1.2983 Debye
        Ion. dipole          -0.5119 Ry au,         -1.3011 Debye
        Dipole               -0.7112 Ry au,         -1.8076 Debye
        Dipole field         -0.0011 Ry au, 
 
        Potential amp.        0.1386 Ry
        Total length         62.1943 bohr
 

     total cpu time spent up to now is      116.2 secs

     total energy              =    -963.53909096 Ry
     Harris-Foulkes estimate   =    -963.53906658 Ry
     estimated scf accuracy    <       0.00006387 Ry

     iteration # 33     ecut=    60.00 Ry     beta= 0.30
     Davidson diagonalization with overlap
     ethr =  3.99E-08,  avg # of iterations =  3.8

     negative rho (up, down):  1.146E-03 0.000E+00
 
     Adding external electric field

     Computed dipole along edir(3) : 
        Elec. dipole         -0.5107 Ry au,         -1.2982 Debye
        Ion. dipole          -0.5119 Ry au,         -1.3011 Debye
        Dipole               -0.7408 Ry au,         -1.8828 Debye
        Dipole field         -0.0012 Ry au, 
 
        Potential amp.        0.1443 Ry
        Total length         62.1943 bohr
 

     total cpu time spent up to now is      117.8 secs

     total energy              =    -963.53909345 Ry
     Harris-Foulkes estimate   =    -963.53902604 Ry
     estimated scf accuracy    <       0.00003558 Ry

     iteration # 34     ecut=    60.00 Ry     beta= 0.30
     Davidson diagonalization with overlap
     ethr =  2.22E-08,  avg # of iterations =  6.5

     negative rho (up, down):  9.387E-04 0.000E+00
 
     Adding external electric field

     Computed dipole along edir(3) : 
        Elec. dipole         -0.5107 Ry au,         -1.2982 Debye
        Ion. dipole          -0.5119 Ry au,         -1.3011 Debye
        Dipole               -0.7370 Ry au,         -1.8733 Debye
        Dipole field         -0.0012 Ry au, 
 
        Potential amp.        0.1436 Ry
        Total length         62.1943 bohr
 

     total cpu time spent up to now is      120.9 secs

     total energy              =    -963.53909744 Ry
     Harris-Foulkes estimate   =    -963.53911083 Ry
     estimated scf accuracy    <       0.00000592 Ry

     iteration # 35     ecut=    60.00 Ry     beta= 0.30
     Davidson diagonalization with overlap
     ethr =  3.70E-09,  avg # of iterations =  4.3

     negative rho (up, down):  2.889E-04 0.000E+00
 
     Adding external electric field

     Computed dipole along edir(3) : 
        Elec. dipole         -0.5107 Ry au,         -1.2982 Debye
        Ion. dipole          -0.5119 Ry au,         -1.3011 Debye
        Dipole               -0.7359 Ry au,         -1.8704 Debye
        Dipole field         -0.0012 Ry au, 
 
        Potential amp.        0.1434 Ry
        Total length         62.1943 bohr
 

     total cpu time spent up to now is      123.5 secs

     total energy              =    -963.53909655 Ry
     Harris-Foulkes estimate   =    -963.53910130 Ry
     estimated scf accuracy    <       0.00000176 Ry

     iteration # 36     ecut=    60.00 Ry     beta= 0.30
     Davidson diagonalization with overlap
     ethr =  1.10E-09,  avg # of iterations =  6.5
 
     Adding external electric field

     Computed dipole along edir(3) : 
        Elec. dipole         -0.5107 Ry au,         -1.2982 Debye
        Ion. dipole          -0.5119 Ry au,         -1.3011 Debye
        Dipole               -0.7374 Ry au,         -1.8743 Debye
        Dipole field         -0.0012 Ry au, 
 
        Potential amp.        0.1437 Ry
        Total length         62.1943 bohr
 

     total cpu time spent up to now is      126.1 secs

     End of self-consistent calculation

          k = 0.0000 0.0000 0.0000 ( 63063 PWs)   bands (ev):

   -47.9945 -47.9878 -47.6376 -47.6298 -27.0451 -26.9612 -26.4507 -26.4121
   -26.2838 -26.2837 -26.1725 -26.1725 -26.0744 -26.0744 -26.0242 -25.9843
   -25.9186 -25.9186 -25.7232 -25.7041 -17.2292 -16.8425 -16.5958 -16.5809
   -16.3440 -16.0799 -15.9534 -15.9533 -15.5306 -15.5078 -15.1895 -15.1889
   -12.4972 -12.4438 -12.4438 -12.3818 -12.1004 -12.1004 -11.3780 -11.3779
   -11.1695 -11.0639 -11.0639 -10.9104  -4.7364  -4.6332  -4.3283  -4.2320
    -4.0385  -3.8266  -3.7507  -3.4504  -3.4504  -3.3054  -2.8226  -2.8224
    -2.6844  -2.6844  -2.5605  -2.4974  -2.4974  -2.4212  -1.8619  -1.7103
    -1.7103  -1.5891  -1.5689  -1.5689  -1.5161  -1.3691  -1.3660  -1.3659
    -1.1798  -1.1798  -1.0689  -0.9735  -0.9735  -0.6254  -0.6253  -0.0313
     1.6059   2.3555   2.4884   2.6391   2.6391   2.9196   3.0763   3.1076
     3.3426   3.6904   3.6904   3.8265   3.8364   3.8364   4.3339   4.3911

     occupation numbers 
     1.0000   1.0000   1.0000   1.0000   1.0000   1.0000   1.0000   1.0000
     1.0000   1.0000   1.0000   1.0000   1.0000   1.0000   1.0000   1.0000
     1.0000   1.0000   1.0000   1.0000   1.0000   1.0000   1.0000   1.0000
     1.0000   1.0000   1.0000   1.0000   1.0000   1.0000   1.0000   1.0000
     1.0000   1.0000   1.0000   1.0000   1.0000   1.0000   1.0000   1.0000
     1.0000   1.0000   1.0000   1.0000   1.0000   1.0000   1.0000   1.0000
     1.0000   1.0000   1.0000   1.0000   1.0000   1.0000   1.0000   1.0000
     1.0000   1.0000   1.0000   1.0000   1.0000   1.0000   1.0000   1.0000
     1.0000   1.0000   1.0000   1.0000   1.0000   1.0000   1.0000   1.0000
     1.0000   1.0000   1.0000   1.0000   1.0000   1.0000   1.0000   1.0000
     0.0000   0.0000   0.0000   0.0000   0.0000   0.0000   0.0000   0.0000
     0.0000   0.0000   0.0000   0.0000   0.0000   0.0000   0.0000   0.0000

          k = 0.0000 0.1667 0.0000 ( 63017 PWs)   bands (ev):

   -47.9941 -47.9883 -47.6370 -47.6303 -27.0399 -26.9677 -26.4468 -26.4131
   -26.2733 -26.2703 -26.1581 -26.1562 -26.0954 -26.0890 -26.0219 -25.9856
   -25.9378 -25.9365 -25.7142 -25.7020 -17.1562 -16.7860 -16.6175 -16.5895
   -16.2773 -16.0431 -16.0244 -16.0165 -15.5531 -15.5341 -15.2753 -15.2539
   -12.4927 -12.4222 -12.3891 -12.3552 -12.1245 -12.0595 -11.3611 -11.3047
   -11.1500 -11.0885 -11.0263 -10.9256  -4.5703  -4.4699  -4.2354  -4.0617
    -3.9145  -3.8388  -3.7344  -3.5049  -3.4241  -3.2145  -3.0418  -2.8383
    -2.8069  -2.7820  -2.7700  -2.6838  -2.3581  -2.2723  -1.9124  -1.8055
    -1.7529  -1.7108  -1.6715  -1.6061  -1.5943  -1.4732  -1.4533  -1.3673
    -1.2663  -1.2124  -1.1815  -1.0888  -0.9827  -0.9209  -0.7629  -0.1256
     1.7153   2.6060   2.6568   2.7155   2.7622   3.2007   3.2228   3.3318
     3.4558   3.5440   3.7479   3.8535   3.9085   4.0367   4.2890   4.3487

     occupation numbers 
     1.0000   1.0000   1.0000   1.0000   1.0000   1.0000   1.0000   1.0000
     1.0000   1.0000   1.0000   1.0000   1.0000   1.0000   1.0000   1.0000
     1.0000   1.0000   1.0000   1.0000   1.0000   1.0000   1.0000   1.0000
     1.0000   1.0000   1.0000   1.0000   1.0000   1.0000   1.0000   1.0000
     1.0000   1.0000   1.0000   1.0000   1.0000   1.0000   1.0000   1.0000
     1.0000   1.0000   1.0000   1.0000   1.0000   1.0000   1.0000   1.0000
     1.0000   1.0000   1.0000   1.0000   1.0000   1.0000   1.0000   1.0000
     1.0000   1.0000   1.0000   1.0000   1.0000   1.0000   1.0000   1.0000
     1.0000   1.0000   1.0000   1.0000   1.0000   1.0000   1.0000   1.0000
     1.0000   1.0000   1.0000   1.0000   1.0000   1.0000   1.0000   1.0000
     0.0000   0.0000   0.0000   0.0000   0.0000   0.0000   0.0000   0.0000
     0.0000   0.0000   0.0000   0.0000   0.0000   0.0000   0.0000   0.0000

          k = 0.0000 0.3333 0.0000 ( 62966 PWs)   bands (ev):

   -47.9928 -47.9895 -47.6356 -47.6317 -27.0258 -26.9846 -26.4369 -26.4172
   -26.2432 -26.2330 -26.1431 -26.1284 -26.1184 -26.1114 -26.0260 -25.9893
   -25.9846 -25.9774 -25.6999 -25.6971 -16.9609 -16.6679 -16.6297 -16.5990
   -16.2711 -16.1861 -16.0845 -15.8702 -15.6026 -15.5856 -15.4994 -15.4263
   -12.4664 -12.4071 -12.3619 -12.1897 -12.1719 -11.9982 -11.3116 -11.1535
   -11.1370 -11.0976 -10.9693 -10.9670  -4.1090  -4.1028  -3.9553  -3.8662
    -3.7796  -3.6955  -3.5877  -3.5370  -3.3481  -3.3005  -3.2140  -3.0344
    -3.0199  -2.8775  -2.7047  -2.6586  -2.6443  -2.4024  -2.3166  -2.2652
    -2.0636  -1.8664  -1.8390  -1.7376  -1.6378  -1.5947  -1.5643  -1.4466
    -1.3963  -1.3603  -1.3233  -1.2458  -1.2304  -1.0379  -0.8284  -0.3614
     2.0268   2.9562   3.0499   3.0847   3.1162   3.2838   3.4772   3.7125
     3.7931   3.8051   3.8857   3.9970   4.1406   4.1609   4.2331   4.3368

     occupation numbers 
     1.0000   1.0000   1.0000   1.0000   1.0000   1.0000   1.0000   1.0000
     1.0000   1.0000   1.0000   1.0000   1.0000   1.0000   1.0000   1.0000
     1.0000   1.0000   1.0000   1.0000   1.0000   1.0000   1.0000   1.0000
     1.0000   1.0000   1.0000   1.0000   1.0000   1.0000   1.0000   1.0000
     1.0000   1.0000   1.0000   1.0000   1.0000   1.0000   1.0000   1.0000
     1.0000   1.0000   1.0000   1.0000   1.0000   1.0000   1.0000   1.0000
     1.0000   1.0000   1.0000   1.0000   1.0000   1.0000   1.0000   1.0000
     1.0000   1.0000   1.0000   1.0000   1.0000   1.0000   1.0000   1.0000
     1.0000   1.0000   1.0000   1.0000   1.0000   1.0000   1.0000   1.0000
     1.0000   1.0000   1.0000   1.0000   1.0000   1.0000   1.0000   1.0000
     0.0000   0.0000   0.0000   0.0000   0.0000   0.0000   0.0000   0.0000
     0.0000   0.0000   0.0000   0.0000   0.0000   0.0000   0.0000   0.0000

          k = 0.0000-0.5000 0.0000 ( 62860 PWs)   bands (ev):

   -47.9912 -47.9912 -47.6338 -47.6336 -27.0058 -27.0058 -26.4256 -26.4256
   -26.1972 -26.1972 -26.1812 -26.1812 -26.0650 -26.0649 -26.0489 -26.0487
   -25.9926 -25.9925 -25.6941 -25.6941 -16.7525 -16.7523 -16.5199 -16.5197
   -16.4112 -16.4112 -15.8074 -15.8068 -15.6530 -15.6525 -15.6113 -15.6112
   -12.4338 -12.4338 -12.2770 -12.2770 -12.0249 -12.0249 -11.2363 -11.2363
   -11.0308 -11.0307 -10.9942 -10.9942  -3.8892  -3.8889  -3.8161  -3.8160
    -3.6054  -3.6054  -3.4654  -3.4654  -3.2243  -3.2242  -3.2139  -3.2139
    -2.9230  -2.9226  -2.7820  -2.7816  -2.7338  -2.7337  -2.4499  -2.4497
    -2.3344  -2.3341  -1.8641  -1.8641  -1.7274  -1.7274  -1.5940  -1.5937
    -1.3467  -1.3464  -1.3172  -1.3172  -1.1469  -1.1469  -0.6367  -0.6362
     2.5080   2.5091   3.5298   3.5332   3.5361   3.5361   3.5804   3.5805
     3.8028   3.8028   3.9685   3.9686   4.0280   4.0280   4.3281   4.3297

     occupation numbers 
     1.0000   1.0000   1.0000   1.0000   1.0000   1.0000   1.0000   1.0000
     1.0000   1.0000   1.0000   1.0000   1.0000   1.0000   1.0000   1.0000
     1.0000   1.0000   1.0000   1.0000   1.0000   1.0000   1.0000   1.0000
     1.0000   1.0000   1.0000   1.0000   1.0000   1.0000   1.0000   1.0000
     1.0000   1.0000   1.0000   1.0000   1.0000   1.0000   1.0000   1.0000
     1.0000   1.0000   1.0000   1.0000   1.0000   1.0000   1.0000   1.0000
     1.0000   1.0000   1.0000   1.0000   1.0000   1.0000   1.0000   1.0000
     1.0000   1.0000   1.0000   1.0000   1.0000   1.0000   1.0000   1.0000
     1.0000   1.0000   1.0000   1.0000   1.0000   1.0000   1.0000   1.0000
     1.0000   1.0000   1.0000   1.0000   1.0000   1.0000   1.0000   1.0000
     0.0000   0.0000   0.0000   0.0000   0.0000   0.0000   0.0000   0.0000
     0.0000   0.0000   0.0000   0.0000   0.0000   0.0000   0.0000   0.0000

          k = 0.1667 0.0000 0.0000 ( 63017 PWs)   bands (ev):

   -47.9941 -47.9883 -47.6370 -47.6303 -27.0399 -26.9677 -26.4468 -26.4131
   -26.2733 -26.2703 -26.1581 -26.1562 -26.0954 -26.0890 -26.0219 -25.9856
   -25.9378 -25.9365 -25.7142 -25.7020 -17.1562 -16.7860 -16.6175 -16.5895
   -16.2773 -16.0431 -16.0244 -16.0165 -15.5531 -15.5341 -15.2753 -15.2539
   -12.4927 -12.4222 -12.3891 -12.3552 -12.1245 -12.0595 -11.3611 -11.3047
   -11.1500 -11.0885 -11.0263 -10.9256  -4.5703  -4.4699  -4.2354  -4.0617
    -3.9145  -3.8388  -3.7344  -3.5049  -3.4241  -3.2145  -3.0418  -2.8383
    -2.8069  -2.7820  -2.7700  -2.6838  -2.3581  -2.2723  -1.9124  -1.8055
    -1.7529  -1.7108  -1.6715  -1.6061  -1.5943  -1.4732  -1.4533  -1.3673
    -1.2663  -1.2124  -1.1815  -1.0888  -0.9827  -0.9209  -0.7629  -0.1256
     1.7153   2.6060   2.6568   2.7155   2.7622   3.2007   3.2228   3.3318
     3.4558   3.5440   3.7479   3.8535   3.9085   4.0367   4.2899   4.4573

     occupation numbers 
     1.0000   1.0000   1.0000   1.0000   1.0000   1.0000   1.0000   1.0000
     1.0000   1.0000   1.0000   1.0000   1.0000   1.0000   1.0000   1.0000
     1.0000   1.0000   1.0000   1.0000   1.0000   1.0000   1.0000   1.0000
     1.0000   1.0000   1.0000   1.0000   1.0000   1.0000   1.0000   1.0000
     1.0000   1.0000   1.0000   1.0000   1.0000   1.0000   1.0000   1.0000
     1.0000   1.0000   1.0000   1.0000   1.0000   1.0000   1.0000   1.0000
     1.0000   1.0000   1.0000   1.0000   1.0000   1.0000   1.0000   1.0000
     1.0000   1.0000   1.0000   1.0000   1.0000   1.0000   1.0000   1.0000
     1.0000   1.0000   1.0000   1.0000   1.0000   1.0000   1.0000   1.0000
     1.0000   1.0000   1.0000   1.0000   1.0000   1.0000   1.0000   1.0000
     0.0000   0.0000   0.0000   0.0000   0.0000   0.0000   0.0000   0.0000
     0.0000   0.0000   0.0000   0.0000   0.0000   0.0000   0.0000   0.0000

          k = 0.1667 0.1667 0.0000 ( 62931 PWs)   bands (ev):

   -47.9937 -47.9886 -47.6366 -47.6308 -27.0356 -26.9735 -26.4433 -26.4138
   -26.2910 -26.2318 -26.1768 -26.1397 -26.1101 -26.0730 -26.0288 -25.9864
   -25.9790 -25.9169 -25.7088 -25.7003 -17.1344 -16.6949 -16.6456 -16.6018
   -16.2604 -16.2288 -15.9492 -15.9270 -15.5813 -15.5602 -15.4602 -15.1893
   -12.4854 -12.3939 -12.3401 -12.3354 -12.0815 -12.0799 -11.2952 -11.2837
   -11.1325 -11.0565 -11.0388 -10.9387  -4.6910  -4.1503  -4.1492  -4.0622
    -3.8487  -3.8136  -3.6268  -3.4812  -3.3506  -3.3091  -3.1616  -2.9707
    -2.8176  -2.7963  -2.7077  -2.6796  -2.4718  -2.3987  -2.1415  -2.0231
    -1.8896  -1.7098  -1.6993  -1.6213  -1.5926  -1.4777  -1.4693  -1.3802
    -1.2913  -1.2869  -1.2450  -1.1763  -1.0504  -1.0208  -0.8146  -0.2287
     1.8243   2.7005   2.7246   2.9472   2.9508   3.2886   3.4865   3.5549
     3.5752   3.5775   3.6272   3.8924   3.9966   4.1641   4.2149   4.3612

     occupation numbers 
     1.0000   1.0000   1.0000   1.0000   1.0000   1.0000   1.0000   1.0000
     1.0000   1.0000   1.0000   1.0000   1.0000   1.0000   1.0000   1.0000
     1.0000   1.0000   1.0000   1.0000   1.0000   1.0000   1.0000   1.0000
     1.0000   1.0000   1.0000   1.0000   1.0000   1.0000   1.0000   1.0000
     1.0000   1.0000   1.0000   1.0000   1.0000   1.0000   1.0000   1.0000
     1.0000   1.0000   1.0000   1.0000   1.0000   1.0000   1.0000   1.0000
     1.0000   1.0000   1.0000   1.0000   1.0000   1.0000   1.0000   1.0000
     1.0000   1.0000   1.0000   1.0000   1.0000   1.0000   1.0000   1.0000
     1.0000   1.0000   1.0000   1.0000   1.0000   1.0000   1.0000   1.0000
     1.0000   1.0000   1.0000   1.0000   1.0000   1.0000   1.0000   1.0000
     0.0000   0.0000   0.0000   0.0000   0.0000   0.0000   0.0000   0.0000
     0.0000   0.0000   0.0000   0.0000   0.0000   0.0000   0.0000   0.0000

          k = 0.1667 0.3333 0.0000 ( 62915 PWs)   bands (ev):

   -47.9926 -47.9897 -47.6354 -47.6320 -27.0237 -26.9883 -26.4343 -26.4169
   -26.2843 -26.1987 -26.1805 -26.1640 -26.0889 -26.0689 -26.0471 -25.9969
   -25.9895 -25.9344 -25.6984 -25.6961 -17.0423 -16.7275 -16.6194 -16.4754
   -16.4570 -16.1682 -16.0232 -15.7361 -15.7062 -15.6125 -15.6110 -15.2629
   -12.4580 -12.4065 -12.2877 -12.1618 -12.1381 -12.0108 -11.2459 -11.1262
   -11.1061 -11.0863 -10.9786 -10.9750  -4.5263  -4.0041  -3.9173  -3.8727
    -3.8578  -3.7451  -3.7343  -3.4853  -3.4142  -3.2741  -3.0282  -3.0052
    -2.9654  -2.8397  -2.8161  -2.7226  -2.6105  -2.5212  -2.4570  -2.2429
    -2.1032  -1.9489  -1.7442  -1.6687  -1.6093  -1.5934  -1.5457  -1.4630
    -1.4620  -1.3870  -1.3222  -1.2736  -1.1835  -1.0638  -0.9604  -0.4872
     2.1334   2.8859   3.0737   3.1645   3.3544   3.5283   3.5548   3.6756
     3.8129   3.8758   3.9054   4.0721   4.1078   4.2109   4.3200   4.4415

     occupation numbers 
     1.0000   1.0000   1.0000   1.0000   1.0000   1.0000   1.0000   1.0000
     1.0000   1.0000   1.0000   1.0000   1.0000   1.0000   1.0000   1.0000
     1.0000   1.0000   1.0000   1.0000   1.0000   1.0000   1.0000   1.0000
     1.0000   1.0000   1.0000   1.0000   1.0000   1.0000   1.0000   1.0000
     1.0000   1.0000   1.0000   1.0000   1.0000   1.0000   1.0000   1.0000
     1.0000   1.0000   1.0000   1.0000   1.0000   1.0000   1.0000   1.0000
     1.0000   1.0000   1.0000   1.0000   1.0000   1.0000   1.0000   1.0000
     1.0000   1.0000   1.0000   1.0000   1.0000   1.0000   1.0000   1.0000
     1.0000   1.0000   1.0000   1.0000   1.0000   1.0000   1.0000   1.0000
     1.0000   1.0000   1.0000   1.0000   1.0000   1.0000   1.0000   1.0000
     0.0000   0.0000   0.0000   0.0000   0.0000   0.0000   0.0000   0.0000
     0.0000   0.0000   0.0000   0.0000   0.0000   0.0000   0.0000   0.0000

          k = 0.1667-0.5000 0.0000 ( 62922 PWs)   bands (ev):

   -47.9912 -47.9912 -47.6337 -47.6336 -27.0067 -27.0067 -26.4241 -26.4241
   -26.2515 -26.2514 -26.1317 -26.1316 -26.1209 -26.1209 -25.9962 -25.9961
   -25.9815 -25.9814 -25.6936 -25.6936 -16.8795 -16.8793 -16.5924 -16.5920
   -16.2229 -16.2228 -15.9831 -15.9826 -15.6377 -15.6376 -15.4574 -15.4569
   -12.4280 -12.4279 -12.2147 -12.2147 -12.0257 -12.0256 -11.1789 -11.1789
   -11.0285 -11.0285 -10.9932 -10.9932  -4.0890  -4.0889  -3.9132  -3.9132
    -3.8837  -3.8835  -3.4889  -3.4886  -3.4613  -3.4612  -3.1639  -3.1639
    -2.8806  -2.8805  -2.7168  -2.7167  -2.5001  -2.4998  -2.4250  -2.4249
    -1.9548  -1.9545  -1.8780  -1.8779  -1.7968  -1.7968  -1.5718  -1.5715
    -1.4244  -1.4241  -1.4102  -1.4101  -1.1212  -1.1212  -0.7856  -0.7851
     2.6066   2.6077   3.2825   3.2825   3.6455   3.6489   3.6944   3.6945
     3.8864   3.8865   4.0360   4.0360   4.2523   4.2523   4.4339   4.4348

     occupation numbers 
     1.0000   1.0000   1.0000   1.0000   1.0000   1.0000   1.0000   1.0000
     1.0000   1.0000   1.0000   1.0000   1.0000   1.0000   1.0000   1.0000
     1.0000   1.0000   1.0000   1.0000   1.0000   1.0000   1.0000   1.0000
     1.0000   1.0000   1.0000   1.0000   1.0000   1.0000   1.0000   1.0000
     1.0000   1.0000   1.0000   1.0000   1.0000   1.0000   1.0000   1.0000
     1.0000   1.0000   1.0000   1.0000   1.0000   1.0000   1.0000   1.0000
     1.0000   1.0000   1.0000   1.0000   1.0000   1.0000   1.0000   1.0000
     1.0000   1.0000   1.0000   1.0000   1.0000   1.0000   1.0000   1.0000
     1.0000   1.0000   1.0000   1.0000   1.0000   1.0000   1.0000   1.0000
     1.0000   1.0000   1.0000   1.0000   1.0000   1.0000   1.0000   1.0000
     0.0000   0.0000   0.0000   0.0000   0.0000   0.0000   0.0000   0.0000
     0.0000   0.0000   0.0000   0.0000   0.0000   0.0000   0.0000   0.0000

          k = 0.1667-0.3333 0.0000 ( 62915 PWs)   bands (ev):

   -47.9926 -47.9897 -47.6354 -47.6320 -27.0237 -26.9883 -26.4343 -26.4169
   -26.2842 -26.1987 -26.1805 -26.1640 -26.0889 -26.0689 -26.0471 -25.9969
   -25.9895 -25.9344 -25.6984 -25.6961 -17.0424 -16.7274 -16.6193 -16.4753
   -16.4569 -16.1678 -16.0232 -15.7366 -15.7067 -15.6126 -15.6110 -15.2623
   -12.4580 -12.4065 -12.2877 -12.1618 -12.1381 -12.0108 -11.2459 -11.1262
   -11.1061 -11.0862 -10.9786 -10.9750  -4.5263  -4.0039  -3.9172  -3.8727
    -3.8578  -3.7451  -3.7343  -3.4853  -3.4142  -3.2741  -3.0281  -3.0051
    -2.9655  -2.8400  -2.8163  -2.7226  -2.6106  -2.5214  -2.4571  -2.2429
    -2.1032  -1.9490  -1.7442  -1.6687  -1.6093  -1.5932  -1.5458  -1.4630
    -1.4621  -1.3868  -1.3223  -1.2733  -1.1834  -1.0638  -0.9602  -0.4873
     2.1334   2.8860   3.0738   3.1645   3.3544   3.5283   3.5548   3.6756
     3.8129   3.8758   3.9054   4.0721   4.1078   4.2108   4.3200   4.4414

     occupation numbers 
     1.0000   1.0000   1.0000   1.0000   1.0000   1.0000   1.0000   1.0000
     1.0000   1.0000   1.0000   1.0000   1.0000   1.0000   1.0000   1.0000
     1.0000   1.0000   1.0000   1.0000   1.0000   1.0000   1.0000   1.0000
     1.0000   1.0000   1.0000   1.0000   1.0000   1.0000   1.0000   1.0000
     1.0000   1.0000   1.0000   1.0000   1.0000   1.0000   1.0000   1.0000
     1.0000   1.0000   1.0000   1.0000   1.0000   1.0000   1.0000   1.0000
     1.0000   1.0000   1.0000   1.0000   1.0000   1.0000   1.0000   1.0000
     1.0000   1.0000   1.0000   1.0000   1.0000   1.0000   1.0000   1.0000
     1.0000   1.0000   1.0000   1.0000   1.0000   1.0000   1.0000   1.0000
     1.0000   1.0000   1.0000   1.0000   1.0000   1.0000   1.0000   1.0000
     0.0000   0.0000   0.0000   0.0000   0.0000   0.0000   0.0000   0.0000
     0.0000   0.0000   0.0000   0.0000   0.0000   0.0000   0.0000   0.0000

          k = 0.1667-0.1667 0.0000 ( 62931 PWs)   bands (ev):

   -47.9937 -47.9886 -47.6366 -47.6308 -27.0356 -26.9735 -26.4433 -26.4138
   -26.2909 -26.2319 -26.1768 -26.1397 -26.1101 -26.0730 -26.0288 -25.9864
   -25.9790 -25.9169 -25.7088 -25.7003 -17.1344 -16.6949 -16.6456 -16.6018
   -16.2601 -16.2287 -15.9492 -15.9274 -15.5813 -15.5602 -15.4607 -15.1888
   -12.4854 -12.3939 -12.3401 -12.3354 -12.0815 -12.0799 -11.2952 -11.2837
   -11.1325 -11.0565 -11.0388 -10.9387  -4.6910  -4.1503  -4.1489  -4.0622
    -3.8487  -3.8136  -3.6268  -3.4815  -3.3507  -3.3092  -3.1615  -2.9707
    -2.8174  -2.7963  -2.7079  -2.6796  -2.4719  -2.3987  -2.1417  -2.0232
    -1.8897  -1.7099  -1.6992  -1.6213  -1.5925  -1.4778  -1.4691  -1.3803
    -1.2913  -1.2870  -1.2450  -1.1764  -1.0501  -1.0207  -0.8144  -0.2288
     1.8243   2.7005   2.7246   2.9472   2.9508   3.2886   3.4864   3.5549
     3.5752   3.5775   3.6272   3.8924   3.9966   4.1641   4.2149   4.3612

     occupation numbers 
     1.0000   1.0000   1.0000   1.0000   1.0000   1.0000   1.0000   1.0000
     1.0000   1.0000   1.0000   1.0000   1.0000   1.0000   1.0000   1.0000
     1.0000   1.0000   1.0000   1.0000   1.0000   1.0000   1.0000   1.0000
     1.0000   1.0000   1.0000   1.0000   1.0000   1.0000   1.0000   1.0000
     1.0000   1.0000   1.0000   1.0000   1.0000   1.0000   1.0000   1.0000
     1.0000   1.0000   1.0000   1.0000   1.0000   1.0000   1.0000   1.0000
     1.0000   1.0000   1.0000   1.0000   1.0000   1.0000   1.0000   1.0000
     1.0000   1.0000   1.0000   1.0000   1.0000   1.0000   1.0000   1.0000
     1.0000   1.0000   1.0000   1.0000   1.0000   1.0000   1.0000   1.0000
     1.0000   1.0000   1.0000   1.0000   1.0000   1.0000   1.0000   1.0000
     0.0000   0.0000   0.0000   0.0000   0.0000   0.0000   0.0000   0.0000
     0.0000   0.0000   0.0000   0.0000   0.0000   0.0000   0.0000   0.0000

          k = 0.3333 0.0000 0.0000 ( 62966 PWs)   bands (ev):

   -47.9928 -47.9895 -47.6356 -47.6317 -27.0258 -26.9846 -26.4369 -26.4172
   -26.2432 -26.2330 -26.1431 -26.1284 -26.1184 -26.1114 -26.0260 -25.9893
   -25.9846 -25.9774 -25.6999 -25.6971 -16.9609 -16.6679 -16.6297 -16.5990
   -16.2711 -16.1861 -16.0845 -15.8702 -15.6026 -15.5856 -15.4994 -15.4263
   -12.4664 -12.4071 -12.3619 -12.1897 -12.1719 -11.9982 -11.3116 -11.1535
   -11.1370 -11.0976 -10.9693 -10.9670  -4.1090  -4.1027  -3.9553  -3.8662
    -3.7796  -3.6955  -3.5877  -3.5370  -3.3481  -3.3005  -3.2140  -3.0344
    -3.0199  -2.8775  -2.7047  -2.6586  -2.6443  -2.4024  -2.3166  -2.2652
    -2.0636  -1.8664  -1.8390  -1.7376  -1.6378  -1.5947  -1.5643  -1.4466
    -1.3963  -1.3603  -1.3233  -1.2458  -1.2304  -1.0379  -0.8284  -0.3614
     2.0268   2.9562   3.0499   3.0847   3.1162   3.2838   3.4772   3.7125
     3.7931   3.8051   3.8857   3.9970   4.1406   4.1609   4.2331   4.3368

     occupation numbers 
     1.0000   1.0000   1.0000   1.0000   1.0000   1.0000   1.0000   1.0000
     1.0000   1.0000   1.0000   1.0000   1.0000   1.0000   1.0000   1.0000
     1.0000   1.0000   1.0000   1.0000   1.0000   1.0000   1.0000   1.0000
     1.0000   1.0000   1.0000   1.0000   1.0000   1.0000   1.0000   1.0000
     1.0000   1.0000   1.0000   1.0000   1.0000   1.0000   1.0000   1.0000
     1.0000   1.0000   1.0000   1.0000   1.0000   1.0000   1.0000   1.0000
     1.0000   1.0000   1.0000   1.0000   1.0000   1.0000   1.0000   1.0000
     1.0000   1.0000   1.0000   1.0000   1.0000   1.0000   1.0000   1.0000
     1.0000   1.0000   1.0000   1.0000   1.0000   1.0000   1.0000   1.0000
     1.0000   1.0000   1.0000   1.0000   1.0000   1.0000   1.0000   1.0000
     0.0000   0.0000   0.0000   0.0000   0.0000   0.0000   0.0000   0.0000
     0.0000   0.0000   0.0000   0.0000   0.0000   0.0000   0.0000   0.0000

          k = 0.3333 0.1667 0.0000 ( 62915 PWs)   bands (ev):

   -47.9926 -47.9897 -47.6354 -47.6320 -27.0237 -26.9883 -26.4343 -26.4169
   -26.2843 -26.1987 -26.1805 -26.1640 -26.0889 -26.0689 -26.0471 -25.9969
   -25.9895 -25.9344 -25.6984 -25.6961 -17.0423 -16.7275 -16.6194 -16.4754
   -16.4570 -16.1682 -16.0232 -15.7361 -15.7062 -15.6125 -15.6110 -15.2629
   -12.4580 -12.4065 -12.2877 -12.1618 -12.1381 -12.0108 -11.2459 -11.1262
   -11.1061 -11.0863 -10.9786 -10.9750  -4.5263  -4.0041  -3.9173  -3.8727
    -3.8578  -3.7451  -3.7343  -3.4853  -3.4142  -3.2741  -3.0282  -3.0052
    -2.9654  -2.8397  -2.8161  -2.7226  -2.6105  -2.5212  -2.4570  -2.2429
    -2.1032  -1.9489  -1.7442  -1.6687  -1.6093  -1.5934  -1.5457  -1.4629
    -1.4620  -1.3870  -1.3222  -1.2736  -1.1835  -1.0638  -0.9604  -0.4872
     2.1334   2.8859   3.0737   3.1645   3.3544   3.5283   3.5548   3.6756
     3.8129   3.8758   3.9054   4.0721   4.1078   4.2109   4.3200   4.4415

     occupation numbers 
     1.0000   1.0000   1.0000   1.0000   1.0000   1.0000   1.0000   1.0000
     1.0000   1.0000   1.0000   1.0000   1.0000   1.0000   1.0000   1.0000
     1.0000   1.0000   1.0000   1.0000   1.0000   1.0000   1.0000   1.0000
     1.0000   1.0000   1.0000   1.0000   1.0000   1.0000   1.0000   1.0000
     1.0000   1.0000   1.0000   1.0000   1.0000   1.0000   1.0000   1.0000
     1.0000   1.0000   1.0000   1.0000   1.0000   1.0000   1.0000   1.0000
     1.0000   1.0000   1.0000   1.0000   1.0000   1.0000   1.0000   1.0000
     1.0000   1.0000   1.0000   1.0000   1.0000   1.0000   1.0000   1.0000
     1.0000   1.0000   1.0000   1.0000   1.0000   1.0000   1.0000   1.0000
     1.0000   1.0000   1.0000   1.0000   1.0000   1.0000   1.0000   1.0000
     0.0000   0.0000   0.0000   0.0000   0.0000   0.0000   0.0000   0.0000
     0.0000   0.0000   0.0000   0.0000   0.0000   0.0000   0.0000   0.0000

          k = 0.3333 0.3333 0.0000 ( 63002 PWs)   bands (ev):

   -47.9920 -47.9903 -47.6346 -47.6327 -27.0178 -26.9977 -26.4278 -26.4171
   -26.3065 -26.2579 -26.1839 -26.1296 -26.1244 -26.0702 -25.9959 -25.9906
   -25.9797 -25.9133 -25.6943 -25.6934 -17.1031 -16.8965 -16.6439 -16.5855
   -16.2472 -16.1890 -15.9759 -15.9453 -15.6633 -15.6607 -15.4567 -15.1871
   -12.4359 -12.4071 -12.1343 -12.1313 -12.0466 -12.0433 -11.1206 -11.0778
   -11.0570 -11.0390 -10.9947 -10.9873  -4.6876  -4.1419  -4.0826  -4.0584
    -4.0324  -3.8756  -3.8607  -3.6461  -3.4892  -3.2240  -3.0417  -3.0121
    -2.9722  -2.8544  -2.8483  -2.6473  -2.5130  -2.4652  -2.3590  -2.2222
    -1.9584  -1.9478  -1.8445  -1.7919  -1.6717  -1.6395  -1.5325  -1.5224
    -1.5039  -1.4464  -1.4100  -1.2305  -1.1172  -1.0861  -1.0120  -0.7901
     2.4331   2.8456   3.3159   3.3570   3.4202   3.4577   3.6463   3.7409
     4.0193   4.1151   4.1190   4.1496   4.2317   4.3981   4.5127   4.5528

     occupation numbers 
     1.0000   1.0000   1.0000   1.0000   1.0000   1.0000   1.0000   1.0000
     1.0000   1.0000   1.0000   1.0000   1.0000   1.0000   1.0000   1.0000
     1.0000   1.0000   1.0000   1.0000   1.0000   1.0000   1.0000   1.0000
     1.0000   1.0000   1.0000   1.0000   1.0000   1.0000   1.0000   1.0000
     1.0000   1.0000   1.0000   1.0000   1.0000   1.0000   1.0000   1.0000
     1.0000   1.0000   1.0000   1.0000   1.0000   1.0000   1.0000   1.0000
     1.0000   1.0000   1.0000   1.0000   1.0000   1.0000   1.0000   1.0000
     1.0000   1.0000   1.0000   1.0000   1.0000   1.0000   1.0000   1.0000
     1.0000   1.0000   1.0000   1.0000   1.0000   1.0000   1.0000   1.0000
     1.0000   1.0000   1.0000   1.0000   1.0000   1.0000   1.0000   1.0000
     0.0000   0.0000   0.0000   0.0000   0.0000   0.0000   0.0000   0.0000
     0.0000   0.0000   0.0000   0.0000   0.0000   0.0000   0.0000   0.0000

          k = 0.3333-0.5000 0.0000 ( 63050 PWs)   bands (ev):

   -47.9912 -47.9912 -47.6337 -47.6336 -27.0086 -27.0086 -26.4208 -26.4207
   -26.2974 -26.2974 -26.1709 -26.1709 -26.0843 -26.0843 -25.9932 -25.9931
   -25.9307 -25.9307 -25.6916 -25.6916 -17.0512 -17.0511 -16.6393 -16.6389
   -16.1491 -16.1485 -16.0195 -16.0194 -15.6856 -15.6855 -15.2606 -15.2600
   -12.4157 -12.4157 -12.0904 -12.0903 -12.0271 -12.0271 -11.0682 -11.0682
   -11.0240 -11.0240 -10.9838 -10.9838  -4.5221  -4.5221  -4.1721  -4.1720
    -3.9759  -3.9756  -3.8624  -3.8621  -3.3236  -3.3236  -3.1469  -3.1468
    -2.9505  -2.9504  -2.6197  -2.6197  -2.4076  -2.4074  -2.2869  -2.2868
    -2.0915  -2.0914  -1.7021  -1.7020  -1.6388  -1.6386  -1.5233  -1.5229
    -1.4545  -1.4544  -1.2958  -1.2954  -1.1341  -1.1339  -1.0616  -1.0614
     2.8771   2.8780   3.0246   3.0247   3.6378   3.6380   3.9372   3.9375
     3.9949   3.9979   4.1708   4.1708   4.4078   4.4078   4.5865   4.5866

     occupation numbers 
     1.0000   1.0000   1.0000   1.0000   1.0000   1.0000   1.0000   1.0000
     1.0000   1.0000   1.0000   1.0000   1.0000   1.0000   1.0000   1.0000
     1.0000   1.0000   1.0000   1.0000   1.0000   1.0000   1.0000   1.0000
     1.0000   1.0000   1.0000   1.0000   1.0000   1.0000   1.0000   1.0000
     1.0000   1.0000   1.0000   1.0000   1.0000   1.0000   1.0000   1.0000
     1.0000   1.0000   1.0000   1.0000   1.0000   1.0000   1.0000   1.0000
     1.0000   1.0000   1.0000   1.0000   1.0000   1.0000   1.0000   1.0000
     1.0000   1.0000   1.0000   1.0000   1.0000   1.0000   1.0000   1.0000
     1.0000   1.0000   1.0000   1.0000   1.0000   1.0000   1.0000   1.0000
     1.0000   1.0000   1.0000   1.0000   1.0000   1.0000   1.0000   1.0000
     0.0000   0.0000   0.0000   0.0000   0.0000   0.0000   0.0000   0.0000
     0.0000   0.0000   0.0000   0.0000   0.0000   0.0000   0.0000   0.0000

          k = 0.3333-0.3333 0.0000 ( 63002 PWs)   bands (ev):

   -47.9920 -47.9903 -47.6346 -47.6327 -27.0178 -26.9977 -26.4278 -26.4171
   -26.3064 -26.2580 -26.1839 -26.1296 -26.1245 -26.0702 -25.9959 -25.9906
   -25.9797 -25.9133 -25.6943 -25.6934 -17.1031 -16.8964 -16.6439 -16.5855
   -16.2470 -16.1887 -15.9764 -15.9454 -15.6633 -15.6607 -15.4572 -15.1866
   -12.4359 -12.4071 -12.1343 -12.1313 -12.0466 -12.0433 -11.1206 -11.0778
   -11.0570 -11.0390 -10.9947 -10.9873  -4.6877  -4.1415  -4.0825  -4.0584
    -4.0324  -3.8756  -3.8607  -3.6461  -3.4896  -3.2240  -3.0416  -3.0121
    -2.9721  -2.8545  -2.8483  -2.6472  -2.5131  -2.4652  -2.3590  -2.2222
    -1.9587  -1.9482  -1.8445  -1.7919  -1.6718  -1.6394  -1.5328  -1.5224
    -1.5036  -1.4464  -1.4100  -1.2302  -1.1172  -1.0860  -1.0115  -0.7903
     2.4331   2.8457   3.3160   3.3569   3.4203   3.4577   3.6463   3.7409
     4.0193   4.1151   4.1190   4.1496   4.2317   4.3975   4.5127   4.5527

     occupation numbers 
     1.0000   1.0000   1.0000   1.0000   1.0000   1.0000   1.0000   1.0000
     1.0000   1.0000   1.0000   1.0000   1.0000   1.0000   1.0000   1.0000
     1.0000   1.0000   1.0000   1.0000   1.0000   1.0000   1.0000   1.0000
     1.0000   1.0000   1.0000   1.0000   1.0000   1.0000   1.0000   1.0000
     1.0000   1.0000   1.0000   1.0000   1.0000   1.0000   1.0000   1.0000
     1.0000   1.0000   1.0000   1.0000   1.0000   1.0000   1.0000   1.0000
     1.0000   1.0000   1.0000   1.0000   1.0000   1.0000   1.0000   1.0000
     1.0000   1.0000   1.0000   1.0000   1.0000   1.0000   1.0000   1.0000
     1.0000   1.0000   1.0000   1.0000   1.0000   1.0000   1.0000   1.0000
     1.0000   1.0000   1.0000   1.0000   1.0000   1.0000   1.0000   1.0000
     0.0000   0.0000   0.0000   0.0000   0.0000   0.0000   0.0000   0.0000
     0.0000   0.0000   0.0000   0.0000   0.0000   0.0000   0.0000   0.0000

          k = 0.3333-0.1667 0.0000 ( 62915 PWs)   bands (ev):

   -47.9926 -47.9897 -47.6354 -47.6320 -27.0237 -26.9883 -26.4343 -26.4169
   -26.2842 -26.1987 -26.1805 -26.1640 -26.0889 -26.0689 -26.0471 -25.9969
   -25.9895 -25.9344 -25.6984 -25.6961 -17.0424 -16.7274 -16.6193 -16.4753
   -16.4569 -16.1678 -16.0232 -15.7366 -15.7067 -15.6126 -15.6110 -15.2623
   -12.4580 -12.4065 -12.2877 -12.1618 -12.1381 -12.0108 -11.2459 -11.1262
   -11.1061 -11.0862 -10.9786 -10.9750  -4.5263  -4.0039  -3.9172  -3.8727
    -3.8578  -3.7451  -3.7343  -3.4853  -3.4142  -3.2741  -3.0281  -3.0051
    -2.9655  -2.8400  -2.8163  -2.7226  -2.6106  -2.5214  -2.4571  -2.2429
    -2.1032  -1.9490  -1.7442  -1.6687  -1.6093  -1.5932  -1.5458  -1.4630
    -1.4621  -1.3868  -1.3223  -1.2733  -1.1834  -1.0638  -0.9602  -0.4873
     2.1334   2.8860   3.0737   3.1645   3.3544   3.5283   3.5548   3.6756
     3.8128   3.8758   3.9054   4.0721   4.1078   4.2108   4.3200   4.4415

     occupation numbers 
     1.0000   1.0000   1.0000   1.0000   1.0000   1.0000   1.0000   1.0000
     1.0000   1.0000   1.0000   1.0000   1.0000   1.0000   1.0000   1.0000
     1.0000   1.0000   1.0000   1.0000   1.0000   1.0000   1.0000   1.0000
     1.0000   1.0000   1.0000   1.0000   1.0000   1.0000   1.0000   1.0000
     1.0000   1.0000   1.0000   1.0000   1.0000   1.0000   1.0000   1.0000
     1.0000   1.0000   1.0000   1.0000   1.0000   1.0000   1.0000   1.0000
     1.0000   1.0000   1.0000   1.0000   1.0000   1.0000   1.0000   1.0000
     1.0000   1.0000   1.0000   1.0000   1.0000   1.0000   1.0000   1.0000
     1.0000   1.0000   1.0000   1.0000   1.0000   1.0000   1.0000   1.0000
     1.0000   1.0000   1.0000   1.0000   1.0000   1.0000   1.0000   1.0000
     0.0000   0.0000   0.0000   0.0000   0.0000   0.0000   0.0000   0.0000
     0.0000   0.0000   0.0000   0.0000   0.0000   0.0000   0.0000   0.0000

          k =-0.5000 0.0000 0.0000 ( 62860 PWs)   bands (ev):

   -47.9912 -47.9912 -47.6338 -47.6336 -27.0058 -27.0058 -26.4256 -26.4256
   -26.1972 -26.1972 -26.1812 -26.1812 -26.0650 -26.0649 -26.0489 -26.0487
   -25.9926 -25.9925 -25.6941 -25.6941 -16.7525 -16.7523 -16.5199 -16.5197
   -16.4112 -16.4112 -15.8072 -15.8070 -15.6528 -15.6527 -15.6113 -15.6112
   -12.4338 -12.4338 -12.2770 -12.2770 -12.0249 -12.0249 -11.2363 -11.2363
   -11.0308 -11.0307 -10.9942 -10.9942  -3.8892  -3.8889  -3.8161  -3.8160
    -3.6054  -3.6054  -3.4654  -3.4654  -3.2243  -3.2242  -3.2139  -3.2139
    -2.9229  -2.9227  -2.7818  -2.7817  -2.7338  -2.7337  -2.4498  -2.4497
    -2.3343  -2.3342  -1.8641  -1.8641  -1.7274  -1.7273  -1.5939  -1.5938
    -1.3466  -1.3465  -1.3172  -1.3172  -1.1469  -1.1469  -0.6365  -0.6364
     2.5081   2.5089   3.5279   3.5351   3.5361   3.5361   3.5803   3.5806
     3.8028   3.8028   3.9685   3.9685   4.0280   4.0280   4.3285   4.3293

     occupation numbers 
     1.0000   1.0000   1.0000   1.0000   1.0000   1.0000   1.0000   1.0000
     1.0000   1.0000   1.0000   1.0000   1.0000   1.0000   1.0000   1.0000
     1.0000   1.0000   1.0000   1.0000   1.0000   1.0000   1.0000   1.0000
     1.0000   1.0000   1.0000   1.0000   1.0000   1.0000   1.0000   1.0000
     1.0000   1.0000   1.0000   1.0000   1.0000   1.0000   1.0000   1.0000
     1.0000   1.0000   1.0000   1.0000   1.0000   1.0000   1.0000   1.0000
     1.0000   1.0000   1.0000   1.0000   1.0000   1.0000   1.0000   1.0000
     1.0000   1.0000   1.0000   1.0000   1.0000   1.0000   1.0000   1.0000
     1.0000   1.0000   1.0000   1.0000   1.0000   1.0000   1.0000   1.0000
     1.0000   1.0000   1.0000   1.0000   1.0000   1.0000   1.0000   1.0000
     0.0000   0.0000   0.0000   0.0000   0.0000   0.0000   0.0000   0.0000
     0.0000   0.0000   0.0000   0.0000   0.0000   0.0000   0.0000   0.0000

          k =-0.5000 0.1667 0.0000 ( 62922 PWs)   bands (ev):

   -47.9912 -47.9912 -47.6337 -47.6336 -27.0067 -27.0067 -26.4241 -26.4241
   -26.2515 -26.2514 -26.1317 -26.1316 -26.1209 -26.1209 -25.9962 -25.9961
   -25.9815 -25.9814 -25.6936 -25.6936 -16.8795 -16.8793 -16.5924 -16.5920
   -16.2229 -16.2228 -15.9831 -15.9826 -15.6377 -15.6376 -15.4574 -15.4569
   -12.4280 -12.4279 -12.2147 -12.2147 -12.0256 -12.0256 -11.1789 -11.1789
   -11.0285 -11.0285 -10.9932 -10.9932  -4.0890  -4.0889  -3.9132  -3.9132
    -3.8837  -3.8835  -3.4889  -3.4886  -3.4613  -3.4612  -3.1639  -3.1639
    -2.8806  -2.8805  -2.7168  -2.7167  -2.5000  -2.4999  -2.4250  -2.4249
    -1.9548  -1.9545  -1.8780  -1.8779  -1.7968  -1.7967  -1.5718  -1.5716
    -1.4243  -1.4242  -1.4102  -1.4101  -1.1212  -1.1212  -0.7854  -0.7852
     2.6068   2.6075   3.2825   3.2825   3.6436   3.6508   3.6944   3.6945
     3.8864   3.8865   4.0360   4.0360   4.2523   4.2523   4.4342   4.4346

     occupation numbers 
     1.0000   1.0000   1.0000   1.0000   1.0000   1.0000   1.0000   1.0000
     1.0000   1.0000   1.0000   1.0000   1.0000   1.0000   1.0000   1.0000
     1.0000   1.0000   1.0000   1.0000   1.0000   1.0000   1.0000   1.0000
     1.0000   1.0000   1.0000   1.0000   1.0000   1.0000   1.0000   1.0000
     1.0000   1.0000   1.0000   1.0000   1.0000   1.0000   1.0000   1.0000
     1.0000   1.0000   1.0000   1.0000   1.0000   1.0000   1.0000   1.0000
     1.0000   1.0000   1.0000   1.0000   1.0000   1.0000   1.0000   1.0000
     1.0000   1.0000   1.0000   1.0000   1.0000   1.0000   1.0000   1.0000
     1.0000   1.0000   1.0000   1.0000   1.0000   1.0000   1.0000   1.0000
     1.0000   1.0000   1.0000   1.0000   1.0000   1.0000   1.0000   1.0000
     0.0000   0.0000   0.0000   0.0000   0.0000   0.0000   0.0000   0.0000
     0.0000   0.0000   0.0000   0.0000   0.0000   0.0000   0.0000   0.0000

          k =-0.5000 0.3333 0.0000 ( 63050 PWs)   bands (ev):

   -47.9912 -47.9912 -47.6337 -47.6336 -27.0086 -27.0086 -26.4208 -26.4207
   -26.2974 -26.2974 -26.1709 -26.1709 -26.0843 -26.0843 -25.9932 -25.9931
   -25.9307 -25.9307 -25.6917 -25.6916 -17.0512 -17.0511 -16.6393 -16.6389
   -16.1491 -16.1485 -16.0195 -16.0194 -15.6856 -15.6855 -15.2606 -15.2600
   -12.4157 -12.4157 -12.0904 -12.0903 -12.0271 -12.0271 -11.0682 -11.0682
   -11.0240 -11.0240 -10.9838 -10.9838  -4.5221  -4.5221  -4.1721  -4.1720
    -3.9759  -3.9756  -3.8624  -3.8621  -3.3237  -3.3236  -3.1469  -3.1468
    -2.9505  -2.9504  -2.6197  -2.6197  -2.4076  -2.4074  -2.2869  -2.2868
    -2.0915  -2.0914  -1.7021  -1.7020  -1.6387  -1.6387  -1.5233  -1.5229
    -1.4545  -1.4544  -1.2958  -1.2954  -1.1341  -1.1339  -1.0615  -1.0615
     2.8772   2.8779   3.0246   3.0247   3.6378   3.6380   3.9369   3.9377
     3.9933   3.9996   4.1708   4.1708   4.4078   4.4078   4.5866   4.5866

     occupation numbers 
     1.0000   1.0000   1.0000   1.0000   1.0000   1.0000   1.0000   1.0000
     1.0000   1.0000   1.0000   1.0000   1.0000   1.0000   1.0000   1.0000
     1.0000   1.0000   1.0000   1.0000   1.0000   1.0000   1.0000   1.0000
     1.0000   1.0000   1.0000   1.0000   1.0000   1.0000   1.0000   1.0000
     1.0000   1.0000   1.0000   1.0000   1.0000   1.0000   1.0000   1.0000
     1.0000   1.0000   1.0000   1.0000   1.0000   1.0000   1.0000   1.0000
     1.0000   1.0000   1.0000   1.0000   1.0000   1.0000   1.0000   1.0000
     1.0000   1.0000   1.0000   1.0000   1.0000   1.0000   1.0000   1.0000
     1.0000   1.0000   1.0000   1.0000   1.0000   1.0000   1.0000   1.0000
     1.0000   1.0000   1.0000   1.0000   1.0000   1.0000   1.0000   1.0000
     0.0000   0.0000   0.0000   0.0000   0.0000   0.0000   0.0000   0.0000
     0.0000   0.0000   0.0000   0.0000   0.0000   0.0000   0.0000   0.0000

          k =-0.5000-0.5000 0.0000 ( 63128 PWs)   bands (ev):

   -47.9912 -47.9912 -47.6337 -47.6336 -27.0096 -27.0096 -26.4188 -26.4188
   -26.3147 -26.3147 -26.1869 -26.1869 -26.0688 -26.0688 -25.9927 -25.9926
   -25.9116 -25.9116 -25.6902 -25.6902 -17.1181 -17.1181 -16.6589 -16.6585
   -16.2037 -16.2032 -15.9455 -15.9455 -15.7087 -15.7086 -15.1851 -15.1846
   -12.4093 -12.4093 -12.0321 -12.0321 -12.0239 -12.0239 -11.0293 -11.0293
   -11.0218 -11.0218 -10.9609 -10.9609  -4.6845  -4.6845  -4.2899  -4.2898
    -4.1380  -4.1376  -3.8772  -3.8769  -3.1672  -3.1672  -3.1653  -3.1653
    -3.0819  -3.0818  -2.5465  -2.5465  -2.4220  -2.4219  -2.3684  -2.3684
    -2.0873  -2.0869  -1.7593  -1.7592  -1.5044  -1.5040  -1.5029  -1.5029
    -1.4465  -1.4465  -1.2981  -1.2978  -1.0815  -1.0815  -1.0634  -1.0629
     2.9234   2.9235   3.1790   3.1799   3.3786   3.3787   3.9833   3.9833
[...]
    -1.5248  -1.5247  -1.4195  -1.4195  -1.1674  -1.1674  -1.0313  -1.0313
     2.6310   2.6310   3.3078   3.3078   3.7520   3.7520   3.8347   3.8347
     4.0905   4.0905   4.1009   4.1009   4.2485   4.2486   4.4834   4.4835

     occupation numbers 
     1.0000   1.0000   1.0000   1.0000   1.0000   1.0000   1.0000   1.0000
     1.0000   1.0000   1.0000   1.0000   1.0000   1.0000   1.0000   1.0000
     1.0000   1.0000   1.0000   1.0000   1.0000   1.0000   1.0000   1.0000
     1.0000   1.0000   1.0000   1.0000   1.0000   1.0000   1.0000   1.0000
     1.0000   1.0000   1.0000   1.0000   1.0000   1.0000   1.0000   1.0000
     1.0000   1.0000   1.0000   1.0000   1.0000   1.0000   1.0000   1.0000
     1.0000   1.0000   1.0000   1.0000   1.0000   1.0000   1.0000   1.0000
     1.0000   1.0000   1.0000   1.0000   1.0000   1.0000   1.0000   1.0000
     1.0000   1.0000   1.0000   1.0000   1.0000   1.0000   1.0000   1.0000
     1.0000   1.0000   1.0000   1.0000   1.0000   1.0000   1.0000   1.0000
     0.0000   0.0000   0.0000   0.0000   0.0000   0.0000   0.0000   0.0000
     0.0000   0.0000   0.0000   0.0000   0.0000   0.0000   0.0000   0.0000

          k =-0.5000 0.3333 0.0000 ( 63050 PWs)   bands (ev):

   -47.9210 -47.9210 -47.6698 -47.6698 -26.9698 -26.9698 -26.5164 -26.5164
   -26.3032 -26.3032 -26.1648 -26.1648 -26.0562 -26.0562 -26.0085 -26.0085
   -25.9437 -25.9437 -25.6776 -25.6776 -17.0174 -17.0174 -16.7492 -16.7492
   -16.3775 -16.3775 -15.9209 -15.9209 -15.7095 -15.7095 -15.4660 -15.4660
   -12.3636 -12.3636 -12.0548 -12.0548 -11.9913 -11.9913 -11.0843 -11.0843
   -11.0437 -11.0437 -10.9730 -10.9730  -4.4488  -4.4488  -4.3104  -4.3104
    -4.2018  -4.2018  -4.0010  -4.0010  -3.4352  -3.4351  -3.2568  -3.2568
    -3.1041  -3.1041  -2.6143  -2.6143  -2.5405  -2.5405  -2.2487  -2.2487
    -2.0511  -2.0511  -1.7278  -1.7278  -1.7076  -1.7076  -1.6327  -1.6327
    -1.4805  -1.4805  -1.4450  -1.4450  -1.2874  -1.2874  -1.1233  -1.1233
     2.9017   2.9017   3.0744   3.0744   3.6693   3.6693   4.1607   4.1607
     4.2178   4.2178   4.2273   4.2273   4.3971   4.3971   4.6236   4.6236

     occupation numbers 
     1.0000   1.0000   1.0000   1.0000   1.0000   1.0000   1.0000   1.0000
     1.0000   1.0000   1.0000   1.0000   1.0000   1.0000   1.0000   1.0000
     1.0000   1.0000   1.0000   1.0000   1.0000   1.0000   1.0000   1.0000
     1.0000   1.0000   1.0000   1.0000   1.0000   1.0000   1.0000   1.0000
     1.0000   1.0000   1.0000   1.0000   1.0000   1.0000   1.0000   1.0000
     1.0000   1.0000   1.0000   1.0000   1.0000   1.0000   1.0000   1.0000
     1.0000   1.0000   1.0000   1.0000   1.0000   1.0000   1.0000   1.0000
     1.0000   1.0000   1.0000   1.0000   1.0000   1.0000   1.0000   1.0000
     1.0000   1.0000   1.0000   1.0000   1.0000   1.0000   1.0000   1.0000
     1.0000   1.0000   1.0000   1.0000   1.0000   1.0000   1.0000   1.0000
     0.0000   0.0000   0.0000   0.0000   0.0000   0.0000   0.0000   0.0000
     0.0000   0.0000   0.0000   0.0000   0.0000   0.0000   0.0000   0.0000

          k =-0.5000-0.5000 0.0000 ( 63128 PWs)   bands (ev):

   -47.9210 -47.9210 -47.6698 -47.6698 -26.9708 -26.9708 -26.5138 -26.5138
   -26.3235 -26.3235 -26.1795 -26.1795 -26.0396 -26.0396 -26.0089 -26.0089
   -25.9252 -25.9252 -25.6744 -25.6744 -17.0699 -17.0699 -16.7854 -16.7854
   -16.4319 -16.4319 -15.8465 -15.8465 -15.7321 -15.7321 -15.3879 -15.3879
   -12.3576 -12.3576 -11.9977 -11.9977 -11.9874 -11.9874 -11.0396 -11.0396
   -10.9998 -10.9998 -10.9970 -10.9970  -4.6096  -4.6096  -4.4305  -4.4305
    -4.3289  -4.3289  -4.0466  -4.0466  -3.4823  -3.4823  -3.2615  -3.2615
    -3.0553  -3.0553  -2.5078  -2.5078  -2.3561  -2.3561  -2.3509  -2.3509
    -2.3157  -2.3157  -1.8323  -1.8323  -1.6620  -1.6620  -1.4683  -1.4683
    -1.4682  -1.4682  -1.3787  -1.3787  -1.2450  -1.2450  -1.1259  -1.1259
     2.9838   2.9838   3.2060   3.2060   3.4007   3.4007   4.1610   4.1610
     4.2757   4.2757   4.5122   4.5122   4.6964   4.6964   4.7528   4.7528

     occupation numbers 
     1.0000   1.0000   1.0000   1.0000   1.0000   1.0000   1.0000   1.0000
     1.0000   1.0000   1.0000   1.0000   1.0000   1.0000   1.0000   1.0000
     1.0000   1.0000   1.0000   1.0000   1.0000   1.0000   1.0000   1.0000
     1.0000   1.0000   1.0000   1.0000   1.0000   1.0000   1.0000   1.0000
     1.0000   1.0000   1.0000   1.0000   1.0000   1.0000   1.0000   1.0000
     1.0000   1.0000   1.0000   1.0000   1.0000   1.0000   1.0000   1.0000
     1.0000   1.0000   1.0000   1.0000   1.0000   1.0000   1.0000   1.0000
     1.0000   1.0000   1.0000   1.0000   1.0000   1.0000   1.0000   1.0000
     1.0000   1.0000   1.0000   1.0000   1.0000   1.0000   1.0000   1.0000
     1.0000   1.0000   1.0000   1.0000   1.0000   1.0000   1.0000   1.0000
     0.0000   0.0000   0.0000   0.0000   0.0000   0.0000   0.0000   0.0000
     0.0000   0.0000   0.0000   0.0000   0.0000   0.0000   0.0000   0.0000

     the Fermi energy is     1.5081 ev

!    total energy              =    -963.56223320 Ry
     Harris-Foulkes estimate   =    -963.56223411 Ry
     estimated scf accuracy    <          2.6E-09 Ry

     The total energy is the sum of the following terms:

     one-electron contribution =  -16086.12270914 Ry
     hartree contribution      =    8071.51968576 Ry
     xc contribution           =    -159.44452987 Ry
     ewald contribution        =    7210.48444641 Ry
     electric field correction =       0.00087363 Ry
     smearing contrib. (-TS)   =      -0.00000000 Ry

     convergence has been achieved in   3 iterations

     Forces acting on atoms (cartesian axes, Ry/au):

     atom    1 type  1   force =    -0.00000000   -0.00000002    0.04629570
     atom    2 type  1   force =     0.00000001    0.00000003    0.04629568
     atom    3 type  2   force =    -0.00000010   -0.00000012   -0.04385455
     atom    4 type  2   force =     0.00000008    0.00000010   -0.04385482
     atom    5 type  3   force =     0.00000003    0.00000000    0.00002085
     atom    6 type  3   force =    -0.00000001    0.00000002    0.00002070
     atom    7 type  3   force =     0.00000010    0.00000012   -0.00124874
     atom    8 type  3   force =    -0.00000001   -0.00000001   -0.00124864
     atom    9 type  3   force =     0.00000006   -0.00000009   -0.00124865
     atom   10 type  3   force =    -0.00000007    0.00000005   -0.00124903
     atom   11 type  1   force =     0.00000031    0.00000011    0.00001290
     atom   12 type  1   force =    -0.00000027   -0.00000002    0.00001291
     atom   13 type  2   force =    -0.00000006    0.00000035   -0.00000492
     atom   14 type  2   force =    -0.00000008   -0.00000048   -0.00000469
     atom   15 type  3   force =    -0.00000034    0.00000045    0.00003161
     atom   16 type  3   force =     0.00000004   -0.00000066    0.00003244
     atom   17 type  3   force =    -0.00000001    0.00000018   -0.00000222
     atom   18 type  3   force =     0.00000000   -0.00000029   -0.00000297
     atom   19 type  3   force =     0.00000019   -0.00000002   -0.00000217
     atom   20 type  3   force =     0.00000014    0.00000031   -0.00000140
     The non-local contrib.  to forces
     atom    1 type  1   force =     0.00000000    0.00000003   -0.13326775
     atom    2 type  1   force =    -0.00000001   -0.00000003   -0.13326775
     atom    3 type  2   force =    -0.00000012    0.00000013    0.03241623
     atom    4 type  2   force =     0.00000004   -0.00000020    0.03241593
     atom    5 type  3   force =     0.00000003    0.00000002    0.35336114
     atom    6 type  3   force =    -0.00000000    0.00000001    0.35336088
     atom    7 type  3   force =     0.00000009    0.00000014   -0.02151563
     atom    8 type  3   force =    -0.00000000   -0.00000002   -0.02151525
     atom    9 type  3   force =     0.00000005   -0.00000009   -0.02151563
     atom   10 type  3   force =    -0.00000006    0.00000005   -0.02151603
     atom   11 type  1   force =     0.00000046    0.00000074   -0.05540823
     atom   12 type  1   force =    -0.00000038   -0.00000061   -0.05540835
     atom   13 type  2   force =    -0.00000017    0.00000006    0.11800730
     atom   14 type  2   force =     0.00000006   -0.00000007    0.11800689
     atom   15 type  3   force =    -0.00000092    0.00000135    0.20531090
     atom   16 type  3   force =     0.00000001   -0.00000198    0.20530958
     atom   17 type  3   force =    -0.00000097   -0.00000041   -0.10981604
     atom   18 type  3   force =     0.00000006   -0.00000096   -0.10981895
     atom   19 type  3   force =     0.00000017    0.00000078   -0.10981311
     atom   20 type  3   force =     0.00000071    0.00000091   -0.10981207
     The ionic contribution  to forces
     atom    1 type  1   force =     0.00000143    0.00000137  -92.85924982
     atom    2 type  1   force =    -0.00000127   -0.00000123  -92.85924993
     atom    3 type  2   force =    -0.00001984    0.00001466  -44.04141169
     atom    4 type  2   force =     0.00001320   -0.00002030  -44.04142909
     atom    5 type  3   force =    -0.00000087    0.00000074  -60.89589235
     atom    6 type  3   force =     0.00000076   -0.00000084  -60.89589310
     atom    7 type  3   force =     0.00000258    0.00000293  -21.90896071
     atom    8 type  3   force =    -0.00000012   -0.00000036  -21.90896089
     atom    9 type  3   force =     0.00000059   -0.00000259  -21.90895090
     atom   10 type  3   force =    -0.00000211    0.00000069  -21.90897646
     atom   11 type  1   force =     0.00003850    0.00004581   25.72039332
     atom   12 type  1   force =    -0.00003218   -0.00003779   25.72038647
     atom   13 type  2   force =    -0.00002367    0.00002844  102.36513382
     atom   14 type  2   force =     0.00001799   -0.00003053  102.36508894
     atom   15 type  3   force =    -0.00000776    0.00001150   12.64998424
     atom   16 type  3   force =     0.00000962   -0.00001083   12.64998114
     atom   17 type  3   force =     0.00000731    0.00000808   50.43960769
     atom   18 type  3   force =     0.00000076    0.00000331   50.43969262
     atom   19 type  3   force =    -0.00000284   -0.00001153   50.43934685
     atom   20 type  3   force =    -0.00000210   -0.00000155   50.43935985
     The local contribution  to forces
     atom    1 type  1   force =    -0.00000144   -0.00000141   93.01529504
     atom    2 type  1   force =     0.00000129    0.00000127   93.01529514
     atom    3 type  2   force =     0.00001985   -0.00001494   43.93692392
     atom    4 type  2   force =    -0.00001315    0.00002061   43.93694124
     atom    5 type  3   force =     0.00000087   -0.00000076   60.52839606
     atom    6 type  3   force =    -0.00000077    0.00000085   60.52839690
     atom    7 type  3   force =    -0.00000259   -0.00000296   21.91505308
     atom    8 type  3   force =     0.00000013    0.00000037   21.91505289
     atom    9 type  3   force =    -0.00000061    0.00000260   21.91504331
     atom   10 type  3   force =     0.00000212   -0.00000071   21.91506889
     atom   11 type  1   force =    -0.00003862   -0.00004645  -25.68852184
     atom   12 type  1   force =     0.00003229    0.00003840  -25.68851484
     atom   13 type  2   force =     0.00002370   -0.00002815 -102.51142076
     atom   14 type  2   force =    -0.00001810    0.00003009 -102.51137474
     atom   15 type  3   force =     0.00000807   -0.00001212  -12.86940085
     atom   16 type  3   force =    -0.00000952    0.00001175  -12.86939536
     atom   17 type  3   force =    -0.00000633   -0.00000736  -50.34402234
     atom   18 type  3   force =    -0.00000074   -0.00000272  -50.34410555
     atom   19 type  3   force =     0.00000290    0.00001068  -50.34376453
     atom   20 type  3   force =     0.00000165    0.00000106  -50.34377719
     The core correction contribution to forces
     atom    1 type  1   force =     0.00000000    0.00000000    0.00000000
     atom    2 type  1   force =     0.00000000    0.00000000    0.00000000
     atom    3 type  2   force =     0.00000000    0.00000000    0.00000000
     atom    4 type  2   force =     0.00000000    0.00000000    0.00000000
     atom    5 type  3   force =     0.00000000    0.00000000    0.00000000
     atom    6 type  3   force =     0.00000000    0.00000000    0.00000000
     atom    7 type  3   force =     0.00000000    0.00000000    0.00000000
     atom    8 type  3   force =     0.00000000    0.00000000    0.00000000
     atom    9 type  3   force =     0.00000000    0.00000000    0.00000000
     atom   10 type  3   force =     0.00000000    0.00000000    0.00000000
     atom   11 type  1   force =     0.00000000    0.00000000    0.00000000
     atom   12 type  1   force =     0.00000000    0.00000000    0.00000000
     atom   13 type  2   force =     0.00000000    0.00000000    0.00000000
     atom   14 type  2   force =     0.00000000    0.00000000    0.00000000
     atom   15 type  3   force =     0.00000000    0.00000000    0.00000000
     atom   16 type  3   force =     0.00000000    0.00000000    0.00000000
     atom   17 type  3   force =     0.00000000    0.00000000    0.00000000
     atom   18 type  3   force =     0.00000000    0.00000000    0.00000000
     atom   19 type  3   force =     0.00000000    0.00000000    0.00000000
     atom   20 type  3   force =     0.00000000    0.00000000    0.00000000
     The Hubbard contrib.    to forces
     atom    1 type  1   force =     0.00000000    0.00000000    0.00000000
     atom    2 type  1   force =     0.00000000    0.00000000    0.00000000
     atom    3 type  2   force =     0.00000000    0.00000000    0.00000000
     atom    4 type  2   force =     0.00000000    0.00000000    0.00000000
     atom    5 type  3   force =     0.00000000    0.00000000    0.00000000
     atom    6 type  3   force =     0.00000000    0.00000000    0.00000000
     atom    7 type  3   force =     0.00000000    0.00000000    0.00000000
     atom    8 type  3   force =     0.00000000    0.00000000    0.00000000
     atom    9 type  3   force =     0.00000000    0.00000000    0.00000000
     atom   10 type  3   force =     0.00000000    0.00000000    0.00000000
     atom   11 type  1   force =     0.00000000    0.00000000    0.00000000
     atom   12 type  1   force =     0.00000000    0.00000000    0.00000000
     atom   13 type  2   force =     0.00000000    0.00000000    0.00000000
     atom   14 type  2   force =     0.00000000    0.00000000    0.00000000
     atom   15 type  3   force =     0.00000000    0.00000000    0.00000000
     atom   16 type  3   force =     0.00000000    0.00000000    0.00000000
     atom   17 type  3   force =     0.00000000    0.00000000    0.00000000
     atom   18 type  3   force =     0.00000000    0.00000000    0.00000000
     atom   19 type  3   force =     0.00000000    0.00000000    0.00000000
     atom   20 type  3   force =     0.00000000    0.00000000    0.00000000
     The SCF correction term to forces
     atom    1 type  1   force =     0.00000000    0.00000000    0.00000000
     atom    2 type  1   force =     0.00000000    0.00000000    0.00000000
     atom    3 type  2   force =     0.00000000    0.00000000    0.00000000
     atom    4 type  2   force =     0.00000000    0.00000000    0.00000000
     atom    5 type  3   force =     0.00000000    0.00000000    0.00000000
     atom    6 type  3   force =     0.00000000    0.00000000    0.00000000
     atom    7 type  3   force =     0.00000000    0.00000000    0.00000000
     atom    8 type  3   force =     0.00000000    0.00000000    0.00000000
     atom    9 type  3   force =     0.00000000    0.00000000    0.00000000
     atom   10 type  3   force =     0.00000000    0.00000000    0.00000000
     atom   11 type  1   force =    -0.00000003    0.00000001    0.00004252
     atom   12 type  1   force =    -0.00000000   -0.00000002    0.00004249
     atom   13 type  2   force =     0.00000008   -0.00000001    0.00008835
     atom   14 type  2   force =    -0.00000003    0.00000004    0.00008785
     atom   15 type  3   force =     0.00000027   -0.00000027   -0.00001133
     atom   16 type  3   force =    -0.00000007    0.00000040   -0.00001158
     atom   17 type  3   force =    -0.00000002   -0.00000014    0.00007981
     atom   18 type  3   force =    -0.00000009    0.00000008    0.00008025
     atom   19 type  3   force =    -0.00000005    0.00000005    0.00007996
     atom   20 type  3   force =    -0.00000011   -0.00000011    0.00007935

     Total force =     0.000050     Total SCF correction =     0.000212
     SCF correction compared to forces is large: reduce conv_thr to get better values

     bfgs converged in  19 scf cycles and  18 bfgs steps
     (criteria: energy <  1.0E-06 Ry, force <  1.0E-04 Ry/Bohr)

     End of BFGS Geometry Optimization

     Final energy   =    -963.5622332021 Ry
Begin final coordinates

ATOMIC_POSITIONS (crystal)
Ba       0.000000000   0.000000000   0.123456630    0   0   0
Ba       0.500000000   0.500000000   0.123456630    0   0   0
Zr       0.500000000   0.000000000   0.185184946    0   0   0
Zr       0.000000000   0.500000000   0.185184946    0   0   0
End final coordinates



     Writing output data file BZO.save
 
     init_run     :      1.08s CPU      1.50s WALL (       1 calls)
     electrons    :    296.41s CPU    318.10s WALL (      19 calls)
     update_pot   :      9.32s CPU      9.36s WALL (      18 calls)
     forces       :      6.24s CPU      6.27s WALL (      19 calls)

     Called by init_run:
     wfcinit      :      0.37s CPU      0.56s WALL (       1 calls)
     wfcinit:wfcr :      0.35s CPU      0.53s WALL (       2 calls)
     potinit      :      0.33s CPU      0.36s WALL (       1 calls)

     Called by electrons:
     c_bands      :    270.46s CPU    291.02s WALL (     135 calls)
     sum_band     :     20.51s CPU     20.72s WALL (     135 calls)
     v_of_rho     :      5.18s CPU      5.26s WALL (     145 calls)
     v_h          :      0.22s CPU      0.25s WALL (     145 calls)
     v_xc         :      3.11s CPU      3.15s WALL (     145 calls)
     mix_rho      :      0.98s CPU      1.09s WALL (     135 calls)

     Called by c_bands:
     init_us_2    :      1.37s CPU      1.40s WALL (     580 calls)
     cegterg      :    226.40s CPU    246.32s WALL (     273 calls)

     Called by sum_band:

     Called by *egterg:
     h_psi        :    110.23s CPU    111.14s WALL (    1848 calls)
     g_psi        :      0.85s CPU      0.81s WALL (    1573 calls)
     cdiaghg      :     56.32s CPU     67.69s WALL (    1792 calls)
     cegterg:over :     22.06s CPU     26.05s WALL (    1573 calls)
     cegterg:upda :     23.13s CPU     23.30s WALL (    1573 calls)
     cegterg:last :      8.86s CPU      8.91s WALL (     333 calls)
     cdiaghg:chol :      7.19s CPU     17.10s WALL (    1792 calls)
     cdiaghg:inve :      0.85s CPU      1.56s WALL (    1792 calls)
     cdiaghg:para :      1.99s CPU      2.26s WALL (    3584 calls)

     Called by h_psi:
     h_psi:pot    :    108.26s CPU    109.10s WALL (    1848 calls)
     h_psi:calbec :      7.09s CPU      6.95s WALL (    1848 calls)
     vloc_psi     :     95.26s CPU     96.19s WALL (    1848 calls)
     add_vuspsi   :      5.90s CPU      5.95s WALL (    1848 calls)

     General routines
     calbec       :      8.14s CPU      8.03s WALL (    2000 calls)
     fft          :      3.09s CPU      3.25s WALL (    1650 calls)
     fftw         :    103.60s CPU    104.66s WALL (  183694 calls)
 
     Parallel routines
     fft_scatt_xy :      7.32s CPU      7.52s WALL (  185344 calls)
     fft_scatt_yz :     48.10s CPU     48.89s WALL (  185344 calls)
 
     PWSCF        :  5m15.13s CPU     5m40.48s WALL

 
   This run was terminated on:  10:51:20  18May2018            

=------------------------------------------------------------------------------=
   JOB DONE.
=------------------------------------------------------------------------------=
