  <PP_INFO>

############################################################
#    Opium Parameter File                                  #
############################################################
#-----------------------------------------------------------
#Command line   : opium sb_frl_gga log all rpt upf 
 
#Opium version  : 3.6 
#Compile Host   : whoville2.chem.upenn.edu 
#Compile OS     : Linux 2.6.18-92.1.13.el5 x86_64 
#Compile Date   : Wed Jan 19 10:47:14 EST 2011 
#-----------------------------------------------------------
#Execution Host : whoville2.chem.upenn.edu 
#Execution Date : Mon Jul 25 01:14:20 2011
 
#-----------------------------------------------------------
############################################################
[Atom]
Sb
11
100 2.00  -
200 2.00  -
210 6.00  -
300 2.00  -
310 6.00  -
320 10.0  -
400 2.00  -
410 6.00  -
500 2.00  -
510 3.00  -
420 10.0  -

[Pseudo]
3 1.90 2.30 1.80
opt

[XC]
gga
-0.075

[Relativity]
frl

[Optinfo]
7.10 10
7.10 10
7.10 10

[Configs]
3

500 2.00  -
510 2.00  -
420 10.00  -

500 2.00  -
510 1.00  -
420 10.00  -

500 2.00  -
510 0.00  -
420 10.00  -

############################################################
  </PP_INFO>



<PP_HEADER>
   0         Version Number
   Sb        Element
   NC        Norm - Conserving pseudopotential
    F      Nonlinear Core Correction
SLA  PW   PBE  PBE     PBE  Exchange-Correlation functional
 15          Z valence
 0          Total energy
 0.000000   0.000000     Suggested cutoff for wfc and rho
 2           Max angular momentum component
 1177           Number of points in mesh
 5  4     Number of Wavefuncitons, Number of Projectors
 Wavefunctions         nl  l   occ
                       S  0  2.000000
                       P  1  1.000000
                       P  1  2.000000
                       D  2  4.000000
                       D  2  6.000000
</PP_HEADER>
<PP_MESH>
  <PP_R>
 2.6965590889371927e-05  2.7318432069438236e-05  2.7675890129544788e-05  2.8038025480954530e-05 
 2.8404899325403767e-05  2.8776573665445432e-05  2.9153111314927562e-05  2.9534575909609134e-05 
 2.9921031917914580e-05  3.0312544651829101e-05  3.0709180277936581e-05  3.1111005828601850e-05 
 3.1518089213299351e-05  3.1930499230089994e-05  3.2348305577248234e-05  3.2771578865041101e-05 
 3.3200390627661688e-05  3.3634813335318491e-05  3.4074920406483064e-05  3.4520786220297953e-05 
 3.4972486129146876e-05  3.5430096471389516e-05  3.5893694584262892e-05  3.6363358816951497e-05 
 3.6839168543828454e-05  3.7321204177870097e-05  3.7809547184245881e-05  3.8304280094086174e-05 
 3.8805486518430278e-05  3.9313251162356796e-05  3.9827659839299089e-05  4.0348799485547915e-05 
 4.0876758174943888e-05  4.1411625133762010e-05  4.1953490755791422e-05  4.2502446617611913e-05 
 4.3058585494070734e-05  4.3622001373961651e-05  4.4192789475909356e-05  4.4771046264461590e-05 
 4.5356869466391948e-05  4.5950358087215897e-05  4.6551612427922850e-05  4.7160734101927463e-05 
 4.7777826052242403e-05  4.8402992568876023e-05  4.9036339306457594e-05  4.9677973302093176e-05 
 5.0328002993455205e-05  5.0986538237108687e-05  5.1653690327077079e-05  5.2329572013651533e-05 
 5.3014297522445751e-05  5.3707982573700408e-05  5.4410744401840214e-05  5.5122701775286759e-05 
 5.5843975016530696e-05  5.6574686022466499e-05  5.7314958284993310e-05  5.8064916911885500e-05 
 5.8824688647935840e-05  5.9594401896376149e-05  6.0374186740577389e-05  6.1164174966034187e-05 
 6.1964500082636900e-05  6.2775297347235085e-05  6.3596703786496223e-05  6.4428858220063646e-05 
 6.5271901284017137e-05  6.6125975454641047e-05  6.6991225072503003e-05  6.7867796366847825e-05 
 6.8755837480310552e-05  6.9655498493953022e-05  7.0566931452627758e-05  7.1490290390674135e-05 
 7.2425731357950342e-05  7.3373412446206288e-05  7.4333493815801531e-05  7.5306137722772477e-05 
 7.6291508546254456e-05  7.7289772816261938e-05  7.8301099241832493e-05  7.9325658739539117e-05 
 8.0363624462375475e-05  8.1415171829019240e-05  8.2480478553478010e-05  8.3559724675123868e-05 
 8.4653092589119996e-05  8.5760767077246278e-05  8.6882935339127533e-05  8.8019787023870877e-05 
 8.9171514262116876e-05  9.0338311698509995e-05  9.1520376524594087e-05  9.2717908512138174e-05 
 9.3931110046898507e-05  9.5160186162821802e-05  9.6405344576697073e-05  9.7666795723259835e-05 
 9.8944752790756251e-05  1.0023943175697241e-04  1.0155105142573501e-04  1.0287983346388997e-04 
 1.0422600243876421e-04  1.0558978585611862e-04  1.0697141419859658e-04  1.0837112096467640e-04 
 1.0978914270813299e-04  1.1122571907801606e-04  1.1268109285915129e-04  1.1415551001317161e-04 
 1.1564921972008532e-04  1.1716247442038808e-04  1.1869552985772595e-04  1.2024864512211655e-04 
 1.2182208269373622e-04  1.2341610848727946e-04  1.2503099189689929e-04  1.2666700584173561e-04 
 1.2832442681203884e-04  1.3000353491589802e-04  1.3170461392657883e-04  1.3342795133048296e-04 
 1.3517383837573338e-04  1.3694257012139614e-04  1.3873444548734596e-04  1.4054976730478456e-04 
 1.4238884236741971e-04  1.4425198148331414e-04  1.4613949952741294e-04  1.4805171549475799e-04 
 1.4998895255439922e-04  1.5195153810401024e-04  1.5393980382522016e-04  1.5595408573966822e-04 
 1.5799472426579207e-04  1.6006206427635953e-04  1.6215645515675297e-04  1.6427825086401604e-04 
 1.6642780998667316e-04  1.6860549580533223e-04  1.7081167635407985e-04  1.7304672448267965e-04 
 1.7531101791958489e-04  1.7760493933577579e-04  1.7992887640943137e-04  1.8228322189144824e-04 
 1.8466837367181653e-04  1.8708473484686390e-04  1.8953271378738029e-04  1.9201272420763280e-04 
 1.9452518523528531e-04  1.9707052148223127e-04  1.9964916311635464e-04  2.0226154593422924e-04 
 2.0490811143476854e-04  2.0758930689384150e-04  2.1030558543986205e-04  2.1305740613036968e-04 
 2.1584523402961054e-04  2.1866954028713497e-04  2.2153080221742254e-04  2.2442950338054957e-04 
 2.2736613366391189e-04  2.3034118936501681e-04  2.3335517327535875e-04  2.3640859476539206e-04 
 2.3950196987061607e-04  2.4263582137878630e-04  2.4581067891826596e-04  2.4902707904753612e-04 
 2.5228556534587378e-04  2.5558668850521923e-04  2.5893100642324286e-04  2.6231908429763285e-04 
 2.6575149472161393e-04  2.6922881778071727e-04  2.7275164115081620e-04  2.7632056019744484e-04 
 2.7993617807641651e-04  2.8359910583575828e-04  2.8730996251897969e-04  2.9106937526969225e-04 
 2.9487797943759871e-04  2.9873641868586811e-04  3.0264534509991711e-04  3.0660541929761339e-04 
 3.1061731054092139e-04  3.1468169684900990e-04  3.1879926511283878e-04  3.2297071121124523e-04 
 3.2719674012854762e-04  3.3147806607369156e-04  3.3581541260095177e-04  3.4020951273221482e-04 
 3.4466110908086111e-04  3.4917095397726892e-04  3.5373980959595944e-04  3.5836844808440668e-04 
 3.6305765169353189e-04  3.6780821290990548e-04  3.7262093458968000e-04  3.7749663009427413e-04 
 3.8243612342783257e-04  3.8744024937648557e-04  3.9250985364942814e-04  3.9764579302184894e-04 
 4.0284893547972605e-04  4.0812016036651872e-04  4.1346035853177853e-04  4.1887043248170600e-04 
 4.2435129653167492e-04  4.2990387696075492e-04  4.3552911216825432e-04  4.4122795283231124e-04 
 4.4700136207056216e-04  4.5285031560290950e-04  4.5877580191642131e-04  4.6477882243238782e-04 
 4.7086039167556381e-04  4.7702153744562630e-04  4.8326330099087458e-04  4.8958673718420373e-04 
 4.9599291470138083e-04  5.0248291620165356e-04  5.0905783851072216e-04  5.1571879280610633e-04 
 5.2246690480493505e-04  5.2930331495419766e-04  5.3622917862348053e-04  5.4324566630022813e-04 
 5.5035396378755796e-04  5.5755527240466333e-04  5.6485080918984056e-04  5.7224180710617033e-04 
 5.7972951524989230e-04  5.8731519906150354e-04  5.9500014053962328e-04  6.0278563845765187e-04 
 6.1067300858326816e-04  6.1866358390079597e-04  6.2675871483648194e-04  6.3495976948672178e-04 
 6.4326813384927043e-04  6.5168521205748035e-04  6.6021242661760157e-04  6.6885121864919048e-04 
 6.7760304812866179e-04  6.8646939413602762e-04  6.9545175510486626e-04  7.0455164907555989e-04 
 7.1377061395184853e-04  7.2311020776073777e-04  7.3257200891581136e-04  7.4215761648398367e-04 
 7.5186865045574866e-04  7.6170675201896068e-04  7.7167358383619983e-04  7.8177083032576538e-04 
 7.9200019794634579e-04  8.0236341548541620e-04  8.1286223435140604e-04  8.2349842886969245e-04 
 8.3427379658246380e-04  8.4519015855250978e-04  8.5624935967098539e-04  8.6745326896920153e-04 
 8.7880377993449681e-04  8.9030281083023839e-04  9.0195230502001741e-04  9.1375423129607834e-04 
 9.2571058421205227e-04  9.3782338442003807e-04  9.5009467901210161e-04  9.6252654186623516e-04 
 9.7512107399685076e-04  9.8788040390985436e-04  1.0008066879623697e-03  1.0139021107271669e-03 
 1.0271688853618623e-03  1.0406092539829456e-03  1.0542254880447023e-03  1.0680198887230972e-03 
 1.0819947873046769e-03  1.0961525455805636e-03  1.1104955562456029e-03  1.1250262433027340e-03 
 1.1397470624726542e-03  1.1546605016088413e-03  1.1697690811180040e-03  1.1850753543860386e-03 
 1.2005819082095588e-03  1.2162913632330675e-03  1.2322063743918535e-03  1.2483296313606825e-03 
 1.2646638590083563e-03  1.2812118178582249e-03  1.2979763045547197e-03  1.3149601523359941e-03 
 1.3321662315127448e-03  1.3495974499533056e-03  1.3672567535750809e-03  1.3851471268424142e-03 
 1.4032715932709686e-03  1.4216332159387071e-03  1.4402350980035638e-03  1.4590803832278821e-03 
 1.4781722565097182e-03  1.4975139444210973e-03  1.5171087157533135e-03  1.5369598820693558e-03 
 1.5570707982635811e-03  1.5774448631286921e-03  1.5980855199301432e-03  1.6189962569880608e-03 
 1.6401806082667766e-03  1.6616421539720782e-03  1.6833845211562701e-03  1.7054113843311574e-03 
 1.7277264660890391e-03  1.7503335377318456e-03  1.7732364199084924e-03  1.7964389832605776e-03 
 1.8199451490765323e-03  1.8437588899543268e-03  1.8678842304728480e-03  1.8923252478720641e-03 
 1.9170860727420896e-03  1.9421708897212574e-03  1.9675839382033420e-03  1.9933295130540236e-03 
 2.0194119653367286e-03  2.0458357030479707e-03  2.0726051918623150e-03  2.0997249558870851e-03 
 2.1271995784269485e-03  2.1550337027585087e-03  2.1832320329150216e-03  2.2117993344814013e-03 
 2.2407404353996046e-03  2.2700602267845689e-03  2.2997636637508236e-03  2.3298557662499112e-03 
 2.3603416199187775e-03  2.3912263769392517e-03  2.4225152569087808e-03  2.4542135477225459e-03 
 2.4863266064671413e-03  2.5188598603259281e-03  2.5518188074962400e-03  2.5852090181185949e-03 
 2.6190361352180589e-03  2.6533058756579341e-03  2.6880240311059202e-03  2.7231964690129229e-03 
 2.7588291336046568e-03  2.7949280468862513e-03  2.8314993096599686e-03  2.8685491025562592e-03 
 2.9060836870783077e-03  2.9441094066602318e-03  2.9826326877391476e-03  3.0216600408412455e-03 
 3.0611980616820906e-03  3.1012534322813054e-03  3.1418329220918588e-03  3.1829433891441120e-03 
 3.2245917812048449e-03  3.2667851369514397e-03  3.3095305871614447e-03  3.3528353559176831e-03 
 3.3967067618291442e-03  3.4411522192678481e-03  3.4861792396218812e-03  3.5317954325648532e-03 
 3.5780085073419438e-03  3.6248262740727821e-03  3.6722566450713744e-03  3.7203076361833108e-03 
 3.7689873681404540e-03  3.8183040679333679e-03  3.8682660702016990e-03  3.9188818186427377e-03 
 3.9701598674384457e-03  4.0221088827011144e-03  4.0747376439379691e-03  4.1280550455349172e-03 
 4.1820700982597324e-03  4.2367919307848851e-03  4.2922297912303146e-03  4.3483930487263874e-03 
 4.4052911949972878e-03  4.4629338459651639e-03  4.5213307433752195e-03  4.5804917564421111e-03 
 4.6404268835178548e-03  4.7011462537815780e-03  4.7626601289513732e-03  4.8249789050185529e-03 
 4.8881131140046013e-03  4.9520734257410964e-03  5.0168706496729514e-03  5.0825157366852433e-03 
 5.1490197809539113e-03  5.2163940218207276e-03  5.2846498456927517e-03  5.3537987879666753e-03 
 5.4238525349783262e-03  5.4948229259776868e-03  5.5667219551297420e-03  5.6395617735415524e-03 
 5.7133546913157940e-03  5.7881131796312033e-03  5.8638498728502400e-03  5.9405775706543196e-03 
 6.0183092402069874e-03  6.0970580183454083e-03  6.1768372138005260e-03  6.2576603094462368e-03 
 6.3395409645780826e-03  6.4224930172216638e-03  6.5065304864713068e-03  6.5916675748593388e-03 
 6.6779186707563278e-03  6.7652983508027674e-03  6.8538213823725568e-03  6.9435027260687301e-03 
 7.0343575382518109e-03  7.1264011736013096e-03  7.2196491877106715e-03  7.3141173397162180e-03 
 7.4098215949604859e-03  7.5067781276903925e-03  7.6050033237907355e-03  7.7045137835534440e-03 
 7.8053263244830702e-03  7.9074579841389558e-03  8.0109260230146785e-03  8.1157479274550672e-03 
 8.2219414126114606e-03  8.3295244254356030e-03  8.4385151477127194e-03  8.5489319991342797e-03 
 8.6607936404109777e-03  8.7741189764264423e-03  8.8889271594321650e-03  9.0052375922843389e-03 
 9.1230699317229446e-03  9.2424440916938026e-03  9.3633802467140686e-03  9.4858988352817756e-03 
 9.6100205633300063e-03  9.7357664077262172e-03  9.8631576198174083e-03  9.9922157290216074e-03 
 1.0122962546466455e-02  1.0255420168675280e-02  1.0389610981301508e-02  1.0525557662911855e-02 
 1.0663283188819079e-02  1.0802810834964857e-02  1.0944164181853479e-02  1.1087367118537016e-02 
 1.1232443846652581e-02  1.1379418884512533e-02  1.1528317071248087e-02  1.1679163571007192e-02 
 1.1831983877207332e-02  1.1986803816843992e-02  1.2143649554855447e-02  1.2302547598544735e-02 
 1.2463524802059442e-02  1.2626608370930079e-02  1.2791825866667956e-02  1.2959205211423082e-02 
 1.3128774692703096e-02  1.3300562968153936e-02  1.3474599070403017e-02  1.3650912411965850e-02 
 1.3829532790216792e-02  1.4010490392424923e-02  1.4193815800855681e-02  1.4379539997939438e-02 
 1.4567694371507546e-02  1.4758310720096960e-02  1.4951421258324276e-02  1.5147058622330078e-02 
 1.5345255875294520e-02  1.5546046513025080e-02  1.5749464469617447e-02  1.5955544123190418e-02 
 1.6164320301695949e-02  1.6375828288805107e-02  1.6590103829871129e-02  1.6807183137970454e-02 
 1.7027102900022816e-02  1.7249900282991431e-02  1.7475612940164306e-02  1.7704279017517737e-02 
 1.7935937160163010e-02  1.8170626518877613e-02  1.8408386756721754e-02  1.8649258055741524e-02 
 1.8893281123759754e-02  1.9140497201255730e-02  1.9390948068334964e-02  1.9644676051790069e-02 
 1.9901724032254181e-02  2.0162135451447748e-02  2.0425954319520444e-02  2.0693225222488891e-02 
 2.0963993329771818e-02  2.1238304401823799e-02  2.1516204797868910e-02  2.1797741483735509e-02 
 2.2082962039793604e-02  2.2371914668996015e-02  2.2664648205024798e-02  2.2961212120544281e-02 
 2.3261656535562045e-02  2.3566032225899310e-02  2.3874390631772185e-02  2.4186783866485193e-02 
 2.4503264725238522e-02  2.4823886694050553e-02  2.5148703958797158e-02  2.5477771414369126e-02 
 2.5811144673949682e-02  2.6148880078413150e-02  2.6491034705846739e-02  2.6837666381196841e-02 
 2.7188833686041615e-02  2.7544595968491375e-02  2.7905013353218620e-02  2.8270146751619211e-02 
 2.8640057872106484e-02  2.9014809230540260e-02  2.9394464160792035e-02  2.9779086825448661e-02 
 3.0168742226655890e-02  3.0563496217103952e-02  3.0963415511156788e-02  3.1368567696126927e-02 
 3.1779021243697969e-02  3.2194845521496311e-02  3.2616110804814635e-02  3.3042888288488469e-02 
 3.3475250098928329e-02  3.3913269306309238e-02  3.4357019936919773e-02  3.4806576985672681e-02 
 3.5262016428779193e-02  3.5723415236589215e-02  3.6190851386599360e-02  3.6664403876631578e-02 
 3.7144152738183778e-02  3.7630179049955401e-02  3.8122564951549920e-02  3.8621393657356666e-02 
 3.9126749470614147e-02  3.9638717797657610e-02  4.0157385162352899e-02  4.0682839220719053e-02 
 4.1215168775742599e-02  4.1754463792385343e-02  4.2300815412788649e-02  4.2854315971676750e-02 
 4.3415059011961486e-02  4.3983139300551290e-02  4.4558652844367011e-02  4.5141696906567365e-02 
 4.5732370022986510e-02  4.6330772018786992e-02  4.6937004025330374e-02  4.7551168497268648e-02 
 4.8173369229859334e-02  4.8803711376507145e-02  4.9442301466535152e-02  5.0089247423188460e-02 
 5.0744658581873582e-02  5.1408645708636201e-02  5.2081321018881112e-02  5.2762798196336808e-02 
 5.3453192412268237e-02  5.4152620344941130e-02  5.4861200199340786e-02  5.5579051727149095e-02 
 5.6306296246982801e-02  5.7043056664896737e-02  5.7789457495154982e-02  5.8545624881274405e-02 
 5.9311686617343033e-02  6.0087772169617526e-02  6.0874012698403382e-02  6.1670541080221318e-02 
 6.2477491930263675e-02  6.3295001625144717e-02  6.4123208325948686e-02  6.4962252001579138e-02 
 6.5812274452414277e-02  6.6673419334271483e-02  6.7545832182685353e-02  6.8429660437503717e-02 
 6.9325053467805223e-02  7.0232162597143127e-02  7.1151141129119286e-02  7.2082144373292939e-02 
 7.3025329671428080e-02  7.3980856424085042e-02  7.4948886117559274e-02  7.5929582351172961e-02 
 7.6923110864923774e-02  7.7929639567495157e-02  7.8949338564633570e-02  7.9982380187896482e-02 
 8.1028939023776919e-02  8.2089191943209072e-02  8.3163318131459898e-02  8.4251499118411649e-02 
 8.5353918809241272e-02  8.6470763515500121e-02  8.7602221986601836e-02  8.8748485441721092e-02 
 8.9909747602109930e-02  9.1086204723837466e-02  9.2278055630957298e-02  9.3485501749109440e-02 
 9.4708747139561747e-02  9.5947998533696607e-02  9.7203465367949188e-02  9.8475359819202593e-02 
 9.9763896840646349e-02  1.0106929419810384e-01  1.0239177250683557e-01  1.0373155526882326e-01 
 1.0508886891054250e-01  1.0646394282122931e-01  1.0785700939164761e-01  1.0926830405336299e-01 
 1.1069806531853253e-01  1.1214653482021303e-01  1.1361395735319769e-01  1.1510058091538730e-01 
 1.1660665674970211e-01  1.1813243938654275e-01  1.1967818668680635e-01  1.2124415988546565e-01 
 1.2283062363571846e-01  1.2443784605371447e-01  1.2606609876386765e-01  1.2771565694476145e-01 
 1.2938679937565453e-01  1.3107980848359518e-01  1.3279497039115221e-01  1.3453257496477022e-01 
 1.3629291586375805e-01  1.3807629058991691e-01  1.3988300053782043e-01  1.4171335104574992e-01 
 1.4356765144729763e-01  1.4544621512364481e-01  1.4734935955652392e-01  1.4927740638187389e-01 
 1.5123068144419702e-01  1.5320951485162787e-01  1.5521424103172210e-01  1.5724519878797563e-01 
 1.5930273135708312e-01  1.6138718646694583e-01  1.6349891639543856e-01  1.6563827802994541e-01 
 1.6780563292767442e-01  1.7000134737676184e-01  1.7222579245817590e-01  1.7447934410842911e-01 
 1.7676238318311441e-01  1.7907529552126919e-01  1.8141847201058361e-01  1.8379230865346136e-01 
 1.8619720663394496e-01  1.8863357238551709e-01  1.9110181765978854e-01  1.9360235959608532e-01 
 1.9613562079194610e-01  1.9870202937454257e-01  2.0130201907303333e-01  2.0393602929186574e-01 
 2.0660450518503590e-01  2.0930789773132108e-01  2.1204666381049592e-01  2.1482126628054626e-01 
 2.1763217405589386e-01  2.2047986218664209e-01  2.2336481193886323e-01  2.2628751087593199e-01 
 2.2924845294092491e-01  2.3224813854009832e-01  2.3528707462745810e-01  2.3836577479043589e-01 
 2.4148475933668684e-01  2.4464455538202279e-01  2.4784569693949599e-01  2.5108872500964879e-01 
 2.5437418767194359e-01  2.5770264017739014e-01  2.6107464504238392e-01  2.6449077214377270e-01 
 2.6795159881516750e-01  2.7145770994451268e-01  2.7500969807293463e-01  2.7860816349488010e-01 
 2.8225371435957070e-01  2.8594696677377907e-01  2.8968854490595369e-01  2.9347908109170417e-01 
 2.9731921594066774e-01  3.0120959844477391e-01  3.0515088608792507e-01  3.0914374495711372e-01 
 3.1318884985499224e-01  3.1728688441391595e-01  3.2143854121147908e-01  3.2564452188756182e-01 
 3.2990553726290900e-01  3.3422230745926074e-01  3.3859556202105451e-01  3.4302604003871989e-01 
 3.4751449027358783e-01  3.5206167128442933e-01  3.5666835155565879e-01  3.6133530962720628e-01 
 3.6606333422609383e-01  3.7085322439973173e-01  3.7570578965095974e-01  3.8062185007485494e-01 
 3.8560223649732950e-01  3.9064779061554283e-01  3.9575936514014959e-01  4.0093782393941069e-01 
 4.0618404218518833e-01  4.1149890650085269e-01  4.1688331511112281e-01  4.2233817799386925e-01 
 4.2786441703390243e-01  4.3346296617877322e-01  4.3913477159661263e-01  4.4488079183603430e-01 
 4.5070199798813565e-01  4.5659937385061133e-01  4.6257391609401843e-01  4.6862663443021607e-01 
 4.7475855178300924e-01  4.8097070446102491e-01  4.8726414233285142e-01  4.9363992900446779e-01 
 5.0009914199899685e-01  5.0664287293880805e-01  5.1327222773000492e-01  5.1998832674932571e-01 
 5.2679230503348973e-01  5.3368531247102113e-01  5.4066851399658267e-01  5.4774308978785291e-01 
 5.5491023546497997e-01  5.6217116229263964e-01  5.6952709738474860e-01  5.7697928391184494e-01 
 5.8452898131118913e-01  5.9217746549961037e-01  5.9992602908914072e-01  6.0777598160546886e-01 
 6.1572864970925423e-01  6.2378537742033413e-01  6.3194752634486773e-01  6.4021647590544972e-01 
 6.4859362357423689e-01  6.5708038510912381e-01  6.6567819479300905e-01  6.7438850567619268e-01 
 6.8321278982194544e-01  6.9215253855529069e-01  7.0120926271504291e-01  7.1038449290913896e-01 
 7.1967977977332021e-01  7.2909669423319057e-01  7.3863682776970707e-01  7.4830179268814390e-01 
 7.5809322239057553e-01  7.6801277165192661e-01  7.7806211689963134e-01  7.8824295649695519e-01 
 7.9855701103002175e-01  8.0900602359859508e-01  8.1959176011066925e-01  8.3031600958090979e-01 
 8.4118058443300192e-01  8.5218732080595461e-01  8.6333807886441150e-01  8.7463474311302469e-01 
 8.8607922271494088e-01  8.9767345181444858e-01  9.0941938986386250e-01  9.2131902195466975e-01 
 9.3337435915301548e-01  9.4558743883957952e-01  9.5796032505389705e-01  9.7049510884318668e-01 
 9.8319390861574329e-01  9.9605887049895248e-01  1.0090921687019925e+00  1.0222960058832802e+00 
 1.0356726135227254e+00  1.0492242522988573e+00  1.0629532124708825e+00  1.0768618142657469e+00 
 1.0909524082702577e+00  1.1052273758283380e+00  1.1196891294434836e+00  1.1343401131864719e+00 
 1.1491828031084277e+00  1.1642197076592748e+00  1.1794533681116721e+00  1.1948863589904937e+00 
 1.2105212885079293e+00  1.2263607990042809e+00  1.2424075673945212e+00  1.2586643056207014e+00 
 1.2751337611102747e+00  1.2918187172404167e+00  1.3087219938084265e+00  1.3258464475082747e+00 
 1.3431949724133945e+00  1.3607705004657860e+00  1.3785760019715219e+00  1.3966144861027352e+00 
 1.4148890014061799e+00  1.4334026363184322e+00  1.4521585196878595e+00  1.4711598213033921e+00 
 1.4904097524302273e+00  1.5099115663525424e+00  1.5296685589233072e+00  1.5496840691212890e+00 
 1.5699614796153503e+00  1.5905042173361268e+00  1.6113157540551868e+00  1.6323996069717694e+00 
 1.6537593393071994e+00  1.6753985609070796e+00  1.6973209288513635e+00  1.7195301480724119e+00 
 1.7420299719811323e+00  1.7648242031013173e+00  1.7879166937122819e+00  1.8113113464998953e+00 
 1.8350121152161638e+00  1.8590230053474102e+00  1.8833480747912141e+00  1.9079914345422093e+00 
 1.9329572493868457e+00  1.9582497386072539e+00  1.9838731766943107e+00  2.0098318940700390e+00 
 2.0361302778194590e+00  2.0627727724320182e+00  2.0897638805527161e+00  2.1171081637430680e+00 
 2.1448102432520160e+00  2.1728748007969276e+00  2.2013065793548270e+00  2.2301103839639600e+00 
 2.2592910825358654e+00  2.2888536066780469e+00  2.3188029525274492e+00  2.3491441815948049e+00 
 2.3798824216200400e+00  2.4110228674388794e+00  2.4425707818607831e+00  2.4745314965583769e+00 
 2.5069104129685131e+00  2.5397130032051303e+00  2.5729448109840516e+00  2.6066114525598874e+00 
 2.6407186176751924e+00  2.6752720705220510e+00  2.7102776507162343e+00  2.7457412742841103e+00 
 2.7816689346624708e+00  2.8180667037114304e+00  2.8549407327405945e+00  2.8922972535486209e+00 
 2.9301425794764446e+00  2.9684831064742228e+00  3.0073253141822716e+00  3.0466757670261431e+00 
 3.0865411153260247e+00  3.1269280964206621e+00  3.1678435358059880e+00  3.2092943482886369e+00 
 3.2512875391545784e+00  3.2938302053530171e+00  3.3369295366957941e+00  3.3805928170724866e+00 
 3.4248274256814035e+00  3.4696408382766810e+00  3.5150406284317084e+00  3.5610344688190771e+00 
 3.6076301325072895e+00  3.6548354942743972e+00  3.7026585319389000e+00  3.7511073277079858e+00 
 3.8001900695434530e+00  3.8499150525454922e+00  3.9002906803545820e+00  3.9513254665717215e+00 
 4.0030280361972475e+00  4.0554071270884862e+00  4.1084715914364631e+00  4.1622303972619532e+00 
 4.2166926299310914e+00  4.2718674936908236e+00  4.3277643132244474e+00  4.3843925352275050e+00 
 4.4417617300042940e+00  4.4998815930852762e+00  4.5587619468656522e+00  4.6184127422653338e+00 
 4.6788440604107278e+00  4.7400661143384326e+00  4.8020892507212753e+00  4.8649239516169285e+00 
 4.9285808362393935e+00  4.9930706627536834e+00  5.0584043300939703e+00  5.1245928798055322e+00 
 5.1916474979108100e+00  5.2595795167998576e+00  5.3284004171455530e+00  5.3981218298438529e+00 
 5.4687555379794492e+00  5.5403134788171329e+00  5.6128077458192172e+00  5.6862505906893697e+00 
 5.7606544254431853e+00  5.8360318245058069e+00  5.9123955268370905e+00  5.9897584380844817e+00 
 6.0681336327641153e+00  6.1475343564704303e+00  6.2279740281147147e+00  6.3094662421929302e+00 
 6.3920247710832179e+00  6.4756635673734566e+00  6.5603967662192861e+00  6.6462386877329855e+00 
 6.7332038394036031e+00  6.8213069185487551e+00  6.9105628147985154e+00  7.0009866126117819e+00 
 7.0925935938256064e+00  7.1853992402378442e+00  7.2794192362236432e+00  7.3746694713860723e+00 
 7.4711660432415927e+00  7.5689252599405181e+00  7.6679636430231497e+00  7.7682979302119435e+00 
 7.8699450782402467e+00  7.9729222657180028e+00  8.0772468960349908e+00  8.1829366003020390e+00 
 8.2900092403307166e+00  8.3984829116520352e+00  8.5083759465746258e+00  8.6197069172829455e+00 
 8.7324946389760214e+00  8.8467581730472649e+00  8.9625168303058942e+00  9.0797901742405056e+00 
 9.1985980243253547e+00  9.3189604593698547e+00  9.4408978209120136e+00  9.5644307166561582e+00 
 9.6895800239556866e+00  9.8163668933414030e+00  9.9448127520959950e+00  1.0074939307875308e+01 
 1.0206768552376984e+01  1.0340322765057110e+01  1.0475624516895495e+01  1.0612696674210234e+01 
 1.0751562402522163e+01  1.0892245170469877e+01  1.1034768753775992e+01  1.1179157239265317e+01 
 1.1325435028935555e+01  1.1473626844081311e+01  1.1623757729472082e+01  1.1775853057584779e+01 
 1.1929938532891878e+01  1.2086040196205442e+01  1.2244184429078112e+01  1.2404397958261638e+01 
 1.2566707860223778e+01  1.2731141565724277e+01  1.2897726864450732e+01  1.3066491909715113e+01 
 1.3237465223211755e+01  1.3410675699837565e+01  1.3586152612575354e+01  1.3763925617441027e+01 
 1.3944024758495521e+01  1.4126480472922330e+01  1.4311323596171450e+01  1.4498585367170659e+01 
 1.4688297433604983e+01  1.4880491857265127e+01  1.5075201119466161e+01  1.5272458126536819e+01 
 1.5472296215380789e+01  1.5674749159110723e+01  1.5879851172755966e+01  1.6087636919044986e+01 
 1.6298141514263460e+01  1.6511400534188994e+01  1.6727450020103536e+01  1.6946326484884423e+01 
 1.7168066919175157e+01  1.7392708797636892e+01  1.7620290085281749e+01  1.7850849243889023e+01 
 1.8084425238505258e+01  1.8321057544029514e+01  1.8560786151884571e+01  1.8803651576775760e+01 
 1.9049694863537933e+01  1.9298957594072167e+01  1.9551481894373179e+01  1.9807310441648763e+01 
 2.0066486471532297e+01  2.0329053785389704e+01  2.0595056757721945e+01  2.0864540343664480e+01 
 2.1137550086584710e+01  2.1414132125778995e+01  2.1694333204270240e+01  2.1978200676707619e+01 
 2.2265782517369598e+01  2.2557127328271740e+01  2.2852284347380493e+01  2.3151303456934656e+01 
 2.3454235191875327e+01  2.3761130748386783e+01  2.4072041992548506e+01  2.4387021469100759e+01 
 2.4706122410324760e+01  2.5029398745039060e+01  2.5356905107713672e+01  2.5688696847703369e+01 
 2.6024830038601912e+01  2.6365361487718598e+01  2.6710348745678811e+01  2.7059850116150255e+01 
 2.7413924665696399e+01  2.7772632233758834e+01  2.8136033442770334e+01  2.8504189708400126e+01 
 2.8877163249933378e+01  2.9255017100786361e+01  2.9637815119159097e+01  3.0025621998827837e+01 
 3.0418503280078266e+01  3.0816525360782002e+01  3.1219755507618029e+01  3.1628261867440880e+01 
 3.2042113478797653e+01  3.2461380283595666e+01  3.2886133138922837e+01  3.3316443829022667e+01 
 3.3752385077425949e+01  3.4194030559241277e+01  3.4641454913606204e+01  3.5094733756301537e+01 
 3.5553943692530559e+01  3.6019162329865445e+01  3.6490468291363172e+01  3.6967941228853036e+01 
 3.7451661836397797e+01  3.7941711863931481e+01  3.8438174131075122e+01  3.8941132541133484e+01 
 3.9450672095274960e+01  3.9966878906896952e+01  4.0489840216179246e+01  4.1019644404827815e+01 
 4.1556381011011517e+01  4.2100140744494290e+01  4.2651015501965297e+01  4.3209098382569671e+01 
 4.3774483703642538e+01  4.4347267016648821e+01  4.4927545123331711e+01  4.5515416092072329e+01 
 4.6110979274463617e+01  4.6714335322100965e+01  4.7325586203592309e+01  4.7944835221791514e+01 
 4.8572187031256568e+01  4.9207747655936387e+01  4.9851624507089277e+01  5.0503926401435542e+01 
 5.1164763579547888e+01  5.1834247724482260e+01  5.2512491980652591e+01  5.3199610972952470e+01 
 5.3895720826126997e+01  5.4600939184398165e+01  5.5315385231347022e+01  5.6039179710055933e+01 
 5.6772444943514522e+01  5.7515304855292470e+01  5.8267884990482948e+01  5.9030312536920135e+01 
 5.9802716346673812e+01  6.0585226957826329e+01  6.1377976616533417e+01  6.2181099299374203e+01 
 6.2994730735993635e+01  6.3819008432041009e+01  6.4654071692408792e+01  6.5500061644775542e+01 
 6.6357121263456747e+01  6.7225395393567837e+01  6.8105030775503394e+01  6.8996176069736578e+01 
 6.9898981881943115e+01  7.0813600788454025e+01  7.1740187362041411e+01  7.2678898198041594e+01 
 7.3629891940820016e+01  7.4593329310582860e+01  7.5569373130538409e+01  7.6558188354415407e+01 
 7.7559942094340201e+01  7.8574803649079115e+01  7.9602944532650369e+01  8.0644538503310329e+01 
 8.1699761592919160e+01  8.2768792136690536e+01  8.3851810803330736e+01  8.4949000625572126e+01 
 8.6060547031106069e+01  8.7186637873920716e+01  8.8327463466048656e+01  8.9483216609730277e+01 